LAMMPS (7 Aug 2019)
KOKKOS mode is enabled (../kokkos.cpp:85)
  will use up to 0 GPU(s) per node
Lattice spacing in x,y,z = 1.6796 1.6796 1.6796
Created orthogonal box = (0 0 0) to (268.735 268.735 268.735)
  1 by 2 by 2 MPI processor grid
Created 16384000 atoms
  create_atoms CPU = 6.58912 secs
Neighbor list info ...
  update every 20 steps, delay 0 steps, check no
  max neighbors/atom: 2000, page size: 100000
  master list distance cutoff = 2.8
  ghost atom cutoff = 2.8
  binsize = 1.4, bins = 192 192 192
  1 neighbor lists, perpetual/occasional/extra = 1 0 0
  (1) pair lj/cut/kk, perpetual
      attributes: full, newton off, kokkos_device
      pair build: full/bin/kk/device
      stencil: full/bin/3d
      bin: kk/device
Setting up Verlet run ...
  Unit style    : lj
  Current step  : 0
  Time step     : 0.005
Per MPI rank memory allocation (min/avg/max) = 600.3 | 600.3 | 600.3 Mbytes
Step Temp E_pair E_mol TotEng Press 
       0         1.44   -6.7733681            0   -4.6133682   -5.0196693 
     100   0.75918554   -5.7610896            0   -4.6223114   0.19195085 
[rank 2, worker 0] busy ratio: 0.994576
[rank 2, worker 1] busy ratio: 0.711366
[rank 2, worker 2] busy ratio: 0.706316
[rank 2, worker 3] busy ratio: 0.708691
[rank 2, worker 4] busy ratio: 0.701279
[rank 2, worker 5] busy ratio: 0.709994
[rank 2, worker 6] busy ratio: 0.704478
[rank 2, worker 7] busy ratio: 0.707407
[rank 2, worker 8] busy ratio: 0.706728
[rank 2, worker 9] busy ratio: 0.707521
[rank 2, worker 10] busy ratio: 0.709105
[rank 3, worker 0] busy ratio: 0.989964
[rank 3, worker 1] busy ratio: 0.718370
[rank 3, worker 2] busy ratio: 0.718678
[rank 3, worker 3] busy ratio: 0.721422
[rank 3, worker 4] busy ratio: 0.718582
[rank 3, worker 5] busy ratio: 0.727939
[rank 3, worker 6] busy ratio: 0.719453
[rank 3, worker 7] busy ratio: 0.724333
[rank 3, worker 8] busy ratio: 0.715050
[rank 3, worker 9] busy ratio: 0.720947
[rank 3, worker 10] busy ratio: 0.718548
[rank 3, worker 11] busy ratio: 0.732550
[rank 3, worker 12] busy ratio: 0.723222
[rank 3, worker 13] busy ratio: 0.720913
[rank 3, worker 14] busy ratio: 0.716782
[rank 3, worker 15] busy ratio: 0.720133
[rank 3, worker 16] busy ratio: 0.721469
[rank 3, worker 17] busy ratio: 0.716492
[rank 3, worker 18] busy ratio: 0.720932
[rank 3, worker 19] busy ratio: 0.715753
[rank 3, worker 20] busy ratio: 0.719162
[rank 3, worker 21] busy ratio: 0.714682
[rank 3, worker 22] busy ratio: 0.716893
[rank 3, worker 23] busy ratio: 0.716056
[rank 3, worker 24] busy ratio: 0.715955
[rank 1, worker 0] busy ratio: 0.994825
[rank 1, worker 1] busy ratio: 0.714165
[rank 1, worker 2] busy ratio: 0.711715
[rank 1, worker 3] busy ratio: 0.714981
[rank 1, worker 4] busy ratio: 0.710831
[rank 1, worker 5] busy ratio: 0.718879
[rank 1, worker 6] busy ratio: 0.709099
[rank 1, worker 7] busy ratio: 0.715109
[rank 1, worker 8] busy ratio: 0.707458
[rank 1, worker 9] busy ratio: 0.715202
[rank 1, worker 10] busy ratio: 0.713080
[rank 0, worker 0] busy ratio: 0.995747
[rank 0, worker 1] busy ratio: 0.721668
[rank 0, worker 2] busy ratio: 0.716700
[rank 0, worker 3] busy ratio: 0.713976
[rank 0, worker 4] busy ratio: 0.713198
[rank 0, worker 5] busy ratio: 0.714065
[rank 0, worker 6] busy ratio: 0.718062
[rank 0, worker 7] busy ratio: 0.720512
[rank 0, worker 8] busy ratio: 0.716435
[rank 0, worker 9] busy ratio: 0.711713
[rank 0, worker 10] busy ratio: 0.715712
[rank 0, worker 11] busy ratio: 0.720005
[rank 0, worker 12] busy ratio: 0.720046
[rank 0, worker 13] busy ratio: 0.719647
[rank 0, worker 14] busy ratio: 0.723931
[rank 0, worker 15] busy ratio: 0.711890
[rank 0, worker 16] busy ratio: 0.724192
[rank 0, worker 17] busy ratio: 0.722808
[rank 0, worker 18] busy ratio: 0.712654
[rank 0, worker 19] busy ratio: 0.714575
[rank 0, worker 20] busy ratio: 0.714631
[rank 0, worker 21] busy ratio: 0.724783
[rank 0, worker 22] busy ratio: 0.723696
[rank 0, worker 23] busy ratio: 0.718807
[rank 0, worker 24] busy ratio: 0.723522
[rank 0, worker 25] busy ratio: 0.715616
[rank 0, worker 26] busy ratio: 0.724368
[rank 0, worker 27] busy ratio: 0.727056
[rank 0, worker 28] busy ratio: 0.719515
[rank 0, worker 29] busy ratio: 0.725516
[rank 0, worker 30] busy ratio: 0.723481
[rank 0, worker 31] busy ratio: 0.718406
[rank 0, worker 32] busy ratio: 0.723189
[rank 0, worker 33] busy ratio: 0.710879
[rank 0, worker 34] busy ratio: 0.726615
[rank 0, worker 35] busy ratio: 0.722440
[rank 0, worker 36] busy ratio: 0.717656
[rank 0, worker 37] busy ratio: 0.720713
[rank 0, worker 38] busy ratio: 0.709377
[rank 0, worker 39] busy ratio: 0.725219
[rank 0, worker 40] busy ratio: 0.721699
[rank 0, worker 41] busy ratio: 0.727024
[rank 0, worker 42] busy ratio: 0.725226
[rank 0, worker 43] busy ratio: 0.723876
[rank 0, worker 44] busy ratio: 0.715697
[rank 0, worker 45] busy ratio: 0.728205
[rank 0, worker 46] busy ratio: 0.725990
[rank 0, worker 47] busy ratio: 0.728854
[rank 0, worker 48] busy ratio: 0.723188
[rank 0, worker 49] busy ratio: 0.724340
[rank 0, worker 50] busy ratio: 0.726670
[rank 0, worker 51] busy ratio: 0.721149
[rank 0, worker 52] busy ratio: 0.730795
[rank 0, worker 53] busy ratio: 0.724311
[rank 0, worker 54] busy ratio: 0.728927
[rank 0, worker 55] busy ratio: 0.784027
Loop time of 12.5187 on 4 procs for 100 steps with 16384000 atoms

Performance: 3450.832 tau/day, 7.988 timesteps/s
5567.7% CPU use with 4 MPI tasks x 56 OpenMP threads

MPI task timing breakdown:
Section |  min time  |  avg time  |  max time  |%varavg| %total
---------------------------------------------------------------
Pair    | 7.9844     | 8.0309     | 8.0777     |   1.4 | 64.15
Neigh   | 1.8703     | 1.9289     | 2.0346     |   4.8 | 15.41
Comm    | 1.565      | 1.674      | 1.7202     |   4.9 | 13.37
[rank 2, worker 11] busy ratio: 0.712120
[rank 2, worker 12] busy ratio: 0.712628
[rank 2, worker 13] busy ratio: 0.712069
[rank 2, worker 14] busy ratio: 0.713593
[rank 2, worker 15] busy ratio: 0.708187
[rank 2, worker 16] busy ratio: 0.712635
[rank 2, worker 17] busy ratio: 0.712643
[rank 2, worker 18] busy ratio: 0.710964
[rank 2, worker 19] busy ratio: 0.712424
[rank 2, worker 20] busy ratio: 0.706053
[rank 2, worker 21] busy ratio: 0.714225
[rank 2, worker 22] busy ratio: 0.709461
[rank 2, worker 23] busy ratio: 0.710520
[rank 2, worker 24] busy ratio: 0.710104
[rank 2, worker 25] busy ratio: 0.710149
[rank 2, worker 26] busy ratio: 0.712252
[rank 2, worker 27] busy ratio: 0.713891
[rank 2, worker 28] busy ratio: 0.721568
[rank 2, worker 29] busy ratio: 0.719807
[rank 2, worker 30] busy ratio: 0.709705
[rank 2, worker 31] busy ratio: 0.711119
[rank 2, worker 32] busy ratio: 0.711207
[rank 2, worker 33] busy ratio: 0.709839
[rank 2, worker 34] busy ratio: 0.714827
[rank 2, worker 35] busy ratio: 0.708613
[rank 2, worker 36] busy ratio: 0.711599
[rank 2, worker 37] busy ratio: 0.708359
[rank 2, worker 38] busy ratio: 0.703345
[rank 2, worker 39] busy ratio: 0.716807
[rank 2, worker 40] busy ratio: 0.710405
[rank 2, worker 41] busy ratio: 0.712483
[rank 3, worker 25] busy ratio: 0.719873
[rank 3, worker 26] busy ratio: 0.727532
[rank 3, worker 27] busy ratio: 0.732593
[rank 3, worker 28] busy ratio: 0.724427
[rank 3, worker 29] busy ratio: 0.721027
[rank 3, worker 30] busy ratio: 0.715298
[rank 3, worker 31] busy ratio: 0.714273
[rank 3, worker 32] busy ratio: 0.701869
[rank 3, worker 33] busy ratio: 0.710012
[rank 3, worker 34] busy ratio: 0.704761
[rank 3, worker 35] busy ratio: 0.705250
[rank 3, worker 36] busy ratio: 0.706676
[rank 3, worker 37] busy ratio: 0.701203
[rank 3, worker 38] busy ratio: 0.704803
[rank 3, worker 39] busy ratio: 0.704758
[rank 3, worker 40] busy ratio: 0.703966
[rank 3, worker 41] busy ratio: 0.704260
[rank 3, worker 42] busy ratio: 0.699478
[rank 3, worker 43] busy ratio: 0.709005
[rank 3, worker 44] busy ratio: 0.705309
[rank 3, worker 45] busy ratio: 0.699870
[rank 3, worker 46] busy ratio: 0.705571
[rank 3, worker 47] busy ratio: 0.705271
[rank 3, worker 48] busy ratio: 0.703104
[rank 3, worker 49] busy ratio: 0.707323
[rank 3, worker 50] busy ratio: 0.698842
[rank 3, worker 51] busy ratio: 0.697510
[rank 3, worker 52] busy ratio: 0.703447
[rank 3, worker 53] busy ratio: 0.703446
[rank 3, worker 54] busy ratio: 0.707455
[rank 3, worker 55] busy ratio: 0.761487
[rank 1, worker 11] busy ratio: 0.715610
[rank 1, worker 12] busy ratio: 0.707611
[rank 1, worker 13] busy ratio: 0.714200
[rank 1, worker 14] busy ratio: 0.709915
[rank 1, worker 15] busy ratio: 0.710442
[rank 1, worker 16] busy ratio: 0.716019
[rank 1, worker 17] busy ratio: 0.707037
[rank 1, worker 18] busy ratio: 0.718143
[rank 1, worker 19] busy ratio: 0.708037
[rank 1, worker 20] busy ratio: 0.716686
[rank 1, worker 21] busy ratio: 0.708227
[rank 1, worker 22] busy ratio: 0.713251
[rank 1, worker 23] busy ratio: 0.711785
[rank 1, worker 24] busy ratio: 0.709578
[rank 1, worker 25] busy ratio: 0.712560
[rank 1, worker 26] busy ratio: 0.715319
[rank 1, worker 27] busy ratio: 0.717338
[rank 1, worker 28] busy ratio: 0.714056
[rank 1, worker 29] busy ratio: 0.712491
[rank 1, worker 30] busy ratio: 0.703557
[rank 1, worker 31] busy ratio: 0.700941
[rank 1, worker 32] busy ratio: 0.694629
[rank 1, worker 33] busy ratio: 0.699317
[rank 1, worker 34] busy ratio: 0.692921
[rank 1, worker 35] busy ratio: 0.695005
[rank 1, worker 36] busy ratio: 0.697777
[rank 1, worker 37] busy ratio: 0.692453
[rank 1, worker 38] busy ratio: 0.696383
[rank 1, worker 39] busy ratio: 0.695301
[rank 1, worker 40] busy ratio: 0.697558
[rank 2, worker 42] busy ratio: 0.702091
[rank 2, worker 43] busy ratio: 0.713012
[rank 2, worker 44] busy ratio: 0.703627
[rank 1, worker 41] busy ratio: 0.694283
[rank 1, worker 42] busy ratio: 0.696996
[rank 1, worker 43] busy ratio: 0.698243
[rank 2, worker 45] busy ratio: 0.714622
[rank 2, worker 46] busy ratio: 0.711951
[rank 1, worker 44] busy ratio: 0.694193
[rank 1, worker 45] busy ratio: 0.691558
[rank 2, worker 47] busy ratio: 0.717487
[rank 2, worker 48] busy ratio: 0.711155
[rank 2, worker 49] busy ratio: 0.706622
[rank 2, worker 50] busy ratio: 0.711341
[rank 2, worker 51] busy ratio: 0.705232
[rank 2, worker 52] busy ratio: 0.714049
[rank 1, worker 46] busy ratio: 0.695819
[rank 1, worker 47] busy ratio: 0.695048
[rank 1, worker 48] busy ratio: 0.692711
[rank 1, worker 49] busy ratio: 0.698345
[rank 2, worker 53] busy ratio: 0.706266
[rank 2, worker 54] busy ratio: 0.722250
[rank 2, worker 55] busy ratio: 0.775796
[rank 1, worker 50] busy ratio: 0.690009
[rank 1, worker 51] busy ratio: 0.696486
[rank 1, worker 52] busy ratio: 0.696049
[rank 1, worker 53] busy ratio: 0.696751
[rank 1, worker 54] busy ratio: 0.700118
[rank 1, worker 55] busy ratio: 0.749986
Output  | 0.0012105  | 0.023782   | 0.046466   |  13.8 |  0.19
Modify  | 0.46485    | 0.51901    | 0.58066    |   6.4 |  4.15
Other   |            | 0.3421     |            |       |  2.73

Nlocal:    4.096e+06 ave 4.09657e+06 max 4.09544e+06 min
Histogram: 1 0 0 1 0 0 1 0 0 1
Nghost:    458178 ave 458566 max 457741 min
Histogram: 1 0 0 0 1 0 0 1 0 1
Neighs:    0 ave 0 max 0 min
Histogram: 4 0 0 0 0 0 0 0 0 0
FullNghs:  3.07645e+08 ave 3.07688e+08 max 3.07588e+08 min
Histogram: 1 0 0 0 1 0 0 0 1 1

Total # of neighbors = 1230581798
Ave neighs/atom = 75.1088
Neighbor list builds = 5
Dangerous builds not checked
Total wall time: 0:00:21
