LAMMPS (7 Aug 2019)
KOKKOS mode is enabled (../kokkos.cpp:85)
  will use up to 0 GPU(s) per node
  using 56 OpenMP thread(s) per MPI task
Lattice spacing in x,y,z = 1.6796 1.6796 1.6796
Created orthogonal box = (0 0 0) to (201.552 201.552 201.552)
  1 by 2 by 2 MPI processor grid
Created 6912000 atoms
  create_atoms CPU = 3.30614 secs
Neighbor list info ...
  update every 20 steps, delay 0 steps, check no
  max neighbors/atom: 2000, page size: 100000
  master list distance cutoff = 2.8
  ghost atom cutoff = 2.8
  binsize = 1.4, bins = 144 144 144
  1 neighbor lists, perpetual/occasional/extra = 1 0 0
  (1) pair lj/cut/kk, perpetual
      attributes: full, newton off, kokkos_device
      pair build: full/bin/kk/device
      stencil: full/bin/3d
      bin: kk/device
Setting up Verlet run ...
  Unit style    : lj
  Current step  : 0
  Time step     : 0.005
Per MPI rank memory allocation (min/avg/max) = 3650 | 3650 | 3650 Mbytes
Step Temp E_pair E_mol TotEng Press 
       0         1.44   -6.7733681            0   -4.6133684   -5.0196694 
     100   0.75929363   -5.7612508            0   -4.6223105   0.19076255 
[rank 0, worker 0] busy ratio: 0.916328
[rank 0, worker 1] busy ratio: 0.784841
[rank 0, worker 2] busy ratio: 0.817370
[rank 0, worker 3] busy ratio: 0.813972
[rank 0, worker 4] busy ratio: 0.806347
[rank 0, worker 5] busy ratio: 0.810723
[rank 0, worker 6] busy ratio: 0.809098
[rank 0, worker 7] busy ratio: 0.808943
[rank 0, worker 8] busy ratio: 0.831169
[rank 0, worker 9] busy ratio: 0.838343
[rank 0, worker 10] busy ratio: 0.821429
[rank 0, worker 11] busy ratio: 0.809098
[rank 0, worker 12] busy ratio: 0.796101
[rank 0, worker 13] busy ratio: 0.807474
[rank 0, worker 14] busy ratio: 0.790414
[rank 0, worker 15] busy ratio: 0.777778
[rank 0, worker 16] busy ratio: 0.775162
[rank 0, worker 17] busy ratio: 0.784903
[rank 0, worker 18] busy ratio: 0.775974
[rank 0, worker 19] busy ratio: 0.820762
[rank 0, worker 20] busy ratio: 0.778409
[rank 3, worker 0] busy ratio: 0.955393
[rank 3, worker 1] busy ratio: 0.802278
[rank 3, worker 2] busy ratio: 0.814634
[rank 3, worker 3] busy ratio: 0.814483
[rank 3, worker 4] busy ratio: 0.786005
[rank 3, worker 5] busy ratio: 0.758733
[rank 3, worker 6] busy ratio: 0.777236
[rank 3, worker 7] busy ratio: 0.799350
[rank 3, worker 8] busy ratio: 0.817370
[rank 3, worker 9] busy ratio: 0.812042
[rank 3, worker 10] busy ratio: 0.786179
[rank 3, worker 11] busy ratio: 0.779854
[rank 3, worker 12] busy ratio: 0.761982
[rank 3, worker 13] busy ratio: 0.768481
[rank 3, worker 14] busy ratio: 0.811382
[rank 3, worker 15] busy ratio: 0.806504
[rank 3, worker 16] busy ratio: 0.813008
[rank 3, worker 17] busy ratio: 0.799187
[rank 3, worker 18] busy ratio: 0.781478
[rank 3, worker 19] busy ratio: 0.770732
[rank 3, worker 20] busy ratio: 0.774167
[rank 3, worker 21] busy ratio: 0.816111
[rank 3, worker 22] busy ratio: 0.803412
[rank 3, worker 23] busy ratio: 0.800162
[rank 3, worker 24] busy ratio: 0.783740
[rank 3, worker 25] busy ratio: 0.754671
[rank 3, worker 26] busy ratio: 0.781656
[rank 3, worker 27] busy ratio: 0.767480
[rank 3, worker 28] busy ratio: 0.772358
[rank 3, worker 29] busy ratio: 0.755682
[rank 3, worker 30] busy ratio: 0.763222
[rank 3, worker 31] busy ratio: 0.759350
[rank 3, worker 32] busy ratio: 0.774167
[rank 3, worker 33] busy ratio: 0.779675
[rank 3, worker 34] busy ratio: 0.783279
[rank 3, worker 35] busy ratio: 0.766477
[rank 3, worker 36] busy ratio: 0.774980
[rank 3, worker 37] busy ratio: 0.764228
[rank 3, worker 38] busy ratio: 0.781833
[rank 3, worker 39] busy ratio: 0.774167
[rank 3, worker 40] busy ratio: 0.779675
[rank 3, worker 41] busy ratio: 0.762794
[rank 3, worker 42] busy ratio: 0.762408
[rank 3, worker 43] busy ratio: 0.763607
[rank 3, worker 44] busy ratio: 0.766044
[rank 3, worker 45] busy ratio: 0.761170
[rank 3, worker 46] busy ratio: 0.775974
[rank 3, worker 47] busy ratio: 0.763607
[rank 0, worker 21] busy ratio: 0.773355
[rank 0, worker 22] busy ratio: 0.760552
[rank 3, worker 48] busy ratio: 0.782114
[rank 3, worker 49] busy ratio: 0.766234
[rank 3, worker 50] busy ratio: 0.778229
[rank 3, worker 51] busy ratio: 0.764419
[rank 3, worker 52] busy ratio: 0.770918
[rank 3, worker 53] busy ratio: 0.766044
[rank 3, worker 54] busy ratio: 0.760357
[rank 3, worker 55] busy ratio: 0.753247
[rank 0, worker 23] busy ratio: 0.760552
[rank 0, worker 24] busy ratio: 0.772912
[rank 0, worker 25] busy ratio: 0.762175
[rank 0, worker 26] busy ratio: 0.777417
[rank 0, worker 27] busy ratio: 0.768045
[rank 0, worker 28] busy ratio: 0.815085
[rank 0, worker 29] busy ratio: 0.816558
[rank 0, worker 30] busy ratio: 0.820762
[rank 0, worker 31] busy ratio: 0.814935
[rank 0, worker 32] busy ratio: 0.820471
[rank 0, worker 33] busy ratio: 0.814634
[rank 0, worker 34] busy ratio: 0.817518
[rank 0, worker 35] busy ratio: 0.796431
[rank 0, worker 36] busy ratio: 0.813160
[rank 0, worker 37] busy ratio: 0.827782
[rank 0, worker 38] busy ratio: 0.799350
[rank 0, worker 39] busy ratio: 0.803412
[rank 0, worker 40] busy ratio: 0.800487
[rank 0, worker 41] busy ratio: 0.798865
[rank 0, worker 42] busy ratio: 0.777958
[rank 0, worker 43] busy ratio: 0.810065
[rank 0, worker 44] busy ratio: 0.802269
[rank 0, worker 45] busy ratio: 0.793187
[rank 0, worker 46] busy ratio: 0.797078
[rank 0, worker 47] busy ratio: 0.776156
[rank 0, worker 48] busy ratio: 0.779400
[rank 0, worker 49] busy ratio: 0.810373
[rank 0, worker 50] busy ratio: 0.769481
[rank 0, worker 51] busy ratio: 0.808286
[rank 0, worker 52] busy ratio: 0.794809
[rank 0, worker 53] busy ratio: 0.760163
[rank 0, worker 54] busy ratio: 0.788321
[rank 0, worker 55] busy ratio: 0.791396
[rank 1, worker 0] busy ratio: 0.965154
[rank 1, worker 1] busy ratio: 0.804065
[rank 1, worker 2] busy ratio: 0.808130
[rank 1, worker 3] busy ratio: 0.799024
[rank 1, worker 4] busy ratio: 0.787977
[rank 1, worker 5] busy ratio: 0.771359
[rank 1, worker 6] busy ratio: 0.791870
[rank 1, worker 7] busy ratio: 0.803906
[rank 1, worker 8] busy ratio: 0.819659
[rank 1, worker 9] busy ratio: 0.811229
[rank 1, worker 10] busy ratio: 0.775427
[rank 1, worker 11] busy ratio: 0.774980
[rank 1, worker 12] busy ratio: 0.767290
[rank 1, worker 13] busy ratio: 0.768669
[rank 1, worker 14] busy ratio: 0.803092
[rank 1, worker 15] busy ratio: 0.804224
[rank 1, worker 16] busy ratio: 0.807630
[rank 1, worker 17] busy ratio: 0.796913
[rank 1, worker 18] busy ratio: 0.792683
[rank 1, worker 19] busy ratio: 0.779221
[rank 1, worker 20] busy ratio: 0.783740
[rank 1, worker 21] busy ratio: 0.804878
[rank 1, worker 22] busy ratio: 0.803412
[rank 1, worker 23] busy ratio: 0.804065
[rank 1, worker 24] busy ratio: 0.789431
[rank 1, worker 25] busy ratio: 0.765041
[rank 1, worker 26] busy ratio: 0.783630
[rank 1, worker 27] busy ratio: 0.751623
[rank 1, worker 28] busy ratio: 0.761982
[rank 1, worker 29] busy ratio: 0.750812
[rank 1, worker 30] busy ratio: 0.765232
[rank 1, worker 31] busy ratio: 0.757108
[rank 1, worker 32] busy ratio: 0.765854
[rank 1, worker 33] busy ratio: 0.773355
[rank 1, worker 34] busy ratio: 0.771916
[rank 1, worker 35] busy ratio: 0.766044
[rank 1, worker 36] busy ratio: 0.753659
[rank 1, worker 37] busy ratio: 0.773171
[rank 1, worker 38] busy ratio: 0.776156
[rank 1, worker 39] busy ratio: 0.763415
[rank 1, worker 40] busy ratio: 0.774980
[rank 1, worker 41] busy ratio: 0.768918
[rank 1, worker 42] busy ratio: 0.752234
[rank 1, worker 43] busy ratio: 0.765041
[rank 1, worker 44] busy ratio: 0.767234
[rank 1, worker 45] busy ratio: 0.759350
[rank 1, worker 46] busy ratio: 0.766044
[rank 1, worker 47] busy ratio: 0.763607
[rank 1, worker 48] busy ratio: 0.768293
[rank 1, worker 49] busy ratio: 0.759772
[rank 1, worker 50] busy ratio: 0.760357
[rank 1, worker 51] busy ratio: 0.769293
[rank 1, worker 52] busy ratio: 0.766044
[rank 1, worker 53] busy ratio: 0.762175
[rank 1, worker 54] busy ratio: 0.756911
[rank 1, worker 55] busy ratio: 0.734959
[rank 2, worker 0] busy ratio: 0.941653
[rank 2, worker 1] busy ratio: 0.824247
[rank 2, worker 2] busy ratio: 0.826829
[rank 2, worker 3] busy ratio: 0.840780
[rank 2, worker 4] busy ratio: 0.794621
[rank 2, worker 5] busy ratio: 0.782114
[rank 2, worker 6] busy ratio: 0.792851
[rank 2, worker 7] busy ratio: 0.821138
[rank 2, worker 8] busy ratio: 0.830081
[rank 2, worker 9] busy ratio: 0.840780
[rank 2, worker 10] busy ratio: 0.788618
[rank 2, worker 11] busy ratio: 0.778049
[rank 2, worker 12] busy ratio: 0.783740
[rank 2, worker 13] busy ratio: 0.780666
[rank 2, worker 14] busy ratio: 0.832520
[rank 2, worker 15] busy ratio: 0.830757
[rank 2, worker 16] busy ratio: 0.826016
Loop time of 12.3365 on 224 procs for 100 steps with 6912000 atoms

Performance: 3501.799 tau/day, 8.106 timesteps/s
4343.4% CPU use with 4 MPI tasks x 56 OpenMP threads
[rank 2, worker 17] busy ratio: 0.838080
[rank 2, worker 18] busy ratio: 0.783740
[rank 2, worker 19] busy ratio: 0.792851
[rank 2, worker 20] busy ratio: 0.779041
[rank 2, worker 21] busy ratio: 0.826829
[rank 2, worker 22] busy ratio: 0.831032
[rank 2, worker 23] busy ratio: 0.823577
[rank 2, worker 24] busy ratio: 0.784091
[rank 2, worker 25] busy ratio: 0.780666
[rank 2, worker 26] busy ratio: 0.783103
[rank 2, worker 27] busy ratio: 0.778049
[rank 2, worker 28] busy ratio: 0.754272
[rank 2, worker 29] busy ratio: 0.747360
[rank 2, worker 30] busy ratio: 0.756713
[rank 2, worker 31] busy ratio: 0.771545
[rank 2, worker 32] busy ratio: 0.770918
[rank 2, worker 33] busy ratio: 0.755285
[rank 2, worker 34] busy ratio: 0.772358
[rank 2, worker 35] busy ratio: 0.750609
[rank 2, worker 36] busy ratio: 0.760163
[rank 2, worker 37] busy ratio: 0.770918
[rank 2, worker 38] busy ratio: 0.755285
[rank 2, worker 39] busy ratio: 0.769293
[rank 2, worker 40] busy ratio: 0.759545
[rank 2, worker 41] busy ratio: 0.773171

MPI task timing breakdown:
Section |  min time  |  avg time  |  max time  |%varavg| %total
---------------------------------------------------------------
[rank 2, worker 42] busy ratio: 0.747360
[rank 2, worker 43] busy ratio: 0.773984
[rank 2, worker 44] busy ratio: 0.766856
[rank 2, worker 45] busy ratio: 0.747154
Pair    | 5.5026     | 5.6149     | 5.9319     |   7.7 | 45.51
[rank 2, worker 46] busy ratio: 0.759154
[rank 2, worker 47] busy ratio: 0.762175
[rank 2, worker 48] busy ratio: 0.759545
[rank 2, worker 49] busy ratio: 0.778862
[rank 2, worker 50] busy ratio: 0.759935
[rank 2, worker 51] busy ratio: 0.778229
[rank 2, worker 52] busy ratio: 0.765422
[rank 2, worker 53] busy ratio: 0.758733
[rank 2, worker 54] busy ratio: 0.762794
[rank 2, worker 55] busy ratio: 0.743902
Neigh   | 0.76151    | 0.77993    | 0.80005    |   1.6 |  6.32
Comm    | 1.1161     | 2.9665     | 4.0611     |  67.9 | 24.05
Output  | 0.00051294 | 0.0096976  | 0.017604   |   6.2 |  0.08
Modify  | 0.30488    | 0.34545    | 0.40321    |   6.1 |  2.80
Other   |            | 2.62       |            |       | 21.24

Nlocal:    1.728e+06 ave 1.72823e+06 max 1.72772e+06 min
Histogram: 1 0 0 0 0 1 1 0 0 1
Nghost:    260645 ave 260881 max 260518 min
Histogram: 1 1 1 0 0 0 0 0 0 1
Neighs:    0 ave 0 max 0 min
Histogram: 4 0 0 0 0 0 0 0 0 0
FullNghs:  1.2979e+08 ave 1.29814e+08 max 1.29771e+08 min
Histogram: 1 0 1 0 0 1 0 0 0 1

Total # of neighbors = 519161500
Ave neighs/atom = 75.1102
Neighbor list builds = 5
Dangerous builds not checked
Total wall time: 0:00:16
