LAMMPS (7 Aug 2019)
KOKKOS mode is enabled (../kokkos.cpp:85)
  will use up to 0 GPU(s) per node
  using 56 OpenMP thread(s) per MPI task
Lattice spacing in x,y,z = 1.6796 1.6796 1.6796
Created orthogonal box = (0 0 0) to (134.368 134.368 134.368)
  1 by 2 by 2 MPI processor grid
Created 2048000 atoms
  create_atoms CPU = 1.61525 secs
Neighbor list info ...
  update every 20 steps, delay 0 steps, check no
  max neighbors/atom: 2000, page size: 100000
  master list distance cutoff = 2.8
  ghost atom cutoff = 2.8
  binsize = 1.4, bins = 96 96 96
  1 neighbor lists, perpetual/occasional/extra = 1 0 0
  (1) pair lj/cut/kk, perpetual
      attributes: full, newton off, kokkos_device
      pair build: full/bin/kk/device
      stencil: full/bin/3d
      bin: kk/device
Setting up Verlet run ...
  Unit style    : lj
  Current step  : 0
  Time step     : 0.005
Per MPI rank memory allocation (min/avg/max) = 1166 | 1166 | 1166 Mbytes
Step Temp E_pair E_mol TotEng Press 
       0         1.44   -6.7733681            0   -4.6133691   -5.0196699 
     100   0.75921977   -5.7611315            0   -4.6223024   0.19208802 
[rank 3, worker 0] busy ratio: 0.963722
[rank 3, worker 1] busy ratio: 0.847861
[rank 3, worker 2] busy ratio: 0.839683
[rank 3, worker 3] busy ratio: 0.849206
[rank 3, worker 4] busy ratio: 0.851030
[rank 3, worker 5] busy ratio: 0.816165
[rank 3, worker 6] busy ratio: 0.819334
[rank 3, worker 7] busy ratio: 0.858730
[rank 1, worker 0] busy ratio: 0.964968
[rank 1, worker 1] busy ratio: 0.816456
[rank 1, worker 2] busy ratio: 0.809826
[rank 1, worker 3] busy ratio: 0.816165
[rank 1, worker 4] busy ratio: 0.795238
[rank 1, worker 5] busy ratio: 0.770206
[rank 1, worker 6] busy ratio: 0.763867
[rank 1, worker 7] busy ratio: 0.818038
[rank 1, worker 8] busy ratio: 0.816165
[rank 1, worker 9] busy ratio: 0.790476
[rank 1, worker 10] busy ratio: 0.764241
[rank 1, worker 11] busy ratio: 0.762282
[rank 1, worker 12] busy ratio: 0.765452
[rank 1, worker 13] busy ratio: 0.765452
[rank 1, worker 14] busy ratio: 0.825397
[rank 1, worker 15] busy ratio: 0.814580
[rank 0, worker 0] busy ratio: 0.949287
[rank 0, worker 1] busy ratio: 0.830159
[rank 0, worker 2] busy ratio: 0.841521
[rank 3, worker 8] busy ratio: 0.849445
[rank 3, worker 9] busy ratio: 0.849684
[rank 3, worker 10] busy ratio: 0.824089
[rank 3, worker 11] busy ratio: 0.814286
[rank 3, worker 12] busy ratio: 0.829114
[rank 3, worker 13] busy ratio: 0.827532
[rank 3, worker 14] busy ratio: 0.841772
[rank 3, worker 15] busy ratio: 0.846519
[rank 3, worker 16] busy ratio: 0.831479
[rank 1, worker 16] busy ratio: 0.806656
[rank 1, worker 17] busy ratio: 0.790808
[rank 1, worker 18] busy ratio: 0.751189
[rank 1, worker 19] busy ratio: 0.753165
[rank 1, worker 20] busy ratio: 0.754358
[rank 1, worker 21] busy ratio: 0.803797
[rank 1, worker 22] busy ratio: 0.800317
[rank 1, worker 23] busy ratio: 0.795886
[rank 1, worker 24] busy ratio: 0.747235
[rank 1, worker 25] busy ratio: 0.742496
[rank 1, worker 26] busy ratio: 0.748019
[rank 1, worker 27] busy ratio: 0.742089
[rank 1, worker 28] busy ratio: 0.768254
[rank 1, worker 29] busy ratio: 0.749206
[rank 1, worker 30] busy ratio: 0.748019
[rank 1, worker 31] busy ratio: 0.738924
[rank 1, worker 32] busy ratio: 0.738510
[rank 1, worker 33] busy ratio: 0.750000
[rank 1, worker 34] busy ratio: 0.745253
[rank 1, worker 35] busy ratio: 0.738510
[rank 1, worker 36] busy ratio: 0.745253
[rank 1, worker 37] busy ratio: 0.738510
[rank 1, worker 38] busy ratio: 0.737342
[rank 1, worker 39] busy ratio: 0.736926
[rank 1, worker 40] busy ratio: 0.731746
[rank 1, worker 41] busy ratio: 0.729002
[rank 2, worker 0] busy ratio: 0.955836
[rank 2, worker 1] busy ratio: 0.852146
[rank 2, worker 2] busy ratio: 0.861905
[rank 2, worker 3] busy ratio: 0.858730
[rank 2, worker 4] busy ratio: 0.850794
[rank 2, worker 5] busy ratio: 0.812698
[rank 2, worker 6] busy ratio: 0.797147
[rank 2, worker 7] busy ratio: 0.866667
[rank 2, worker 8] busy ratio: 0.858730
[rank 2, worker 9] busy ratio: 0.868254
[rank 2, worker 10] busy ratio: 0.808241
[rank 2, worker 11] busy ratio: 0.803487
[rank 2, worker 12] busy ratio: 0.801902
[rank 2, worker 13] busy ratio: 0.800633
[rank 2, worker 14] busy ratio: 0.867089
[rank 2, worker 15] busy ratio: 0.856013
[rank 2, worker 16] busy ratio: 0.847861
[rank 0, worker 3] busy ratio: 0.830159
[rank 0, worker 4] busy ratio: 0.819620
[rank 0, worker 5] busy ratio: 0.797147
[rank 0, worker 6] busy ratio: 0.786054
[rank 0, worker 7] busy ratio: 0.833333
[rank 0, worker 8] busy ratio: 0.835182
[rank 0, worker 9] busy ratio: 0.832278
[rank 0, worker 10] busy ratio: 0.785714
[rank 0, worker 11] busy ratio: 0.789223
[rank 3, worker 17] busy ratio: 0.840190
[rank 3, worker 18] busy ratio: 0.814580
[rank 3, worker 19] busy ratio: 0.811111
[rank 1, worker 42] busy ratio: 0.730586
[rank 1, worker 43] busy ratio: 0.731013
[rank 1, worker 44] busy ratio: 0.738924
[rank 1, worker 45] busy ratio: 0.731013
[rank 0, worker 12] busy ratio: 0.784810
[rank 0, worker 13] busy ratio: 0.781300
[rank 0, worker 14] busy ratio: 0.836508
[rank 0, worker 15] busy ratio: 0.832013
[rank 3, worker 20] busy ratio: 0.816165
[rank 3, worker 21] busy ratio: 0.844691
[rank 1, worker 46] busy ratio: 0.726698
[rank 1, worker 47] busy ratio: 0.736177
[rank 1, worker 48] busy ratio: 0.725832
[rank 2, worker 17] busy ratio: 0.841270
[rank 2, worker 18] busy ratio: 0.795563
[rank 2, worker 19] busy ratio: 0.796209
[rank 2, worker 20] busy ratio: 0.787639
[rank 2, worker 21] busy ratio: 0.849206
[rank 2, worker 22] busy ratio: 0.846032
[rank 2, worker 23] busy ratio: 0.842857
[rank 2, worker 24] busy ratio: 0.782884
[rank 2, worker 25] busy ratio: 0.779365
[rank 2, worker 26] busy ratio: 0.780063
[rank 2, worker 27] busy ratio: 0.784469
[rank 2, worker 28] busy ratio: 0.812698
[rank 2, worker 29] busy ratio: 0.787975
[rank 2, worker 30] busy ratio: 0.784810
[rank 2, worker 31] busy ratio: 0.781300
[rank 2, worker 32] busy ratio: 0.788889
[rank 2, worker 33] busy ratio: 0.785714
[rank 2, worker 34] busy ratio: 0.780604
[rank 2, worker 35] busy ratio: 0.776545
[rank 2, worker 36] busy ratio: 0.780063
[rank 2, worker 37] busy ratio: 0.774603
[rank 2, worker 38] busy ratio: 0.779365
[rank 2, worker 39] busy ratio: 0.781300
[rank 2, worker 40] busy ratio: 0.775671
[rank 0, worker 16] busy ratio: 0.828843
[rank 0, worker 17] busy ratio: 0.825119
[rank 0, worker 18] busy ratio: 0.778130
[rank 3, worker 22] busy ratio: 0.830696
[rank 3, worker 23] busy ratio: 0.829114
[rank 3, worker 24] busy ratio: 0.808241
[rank 1, worker 49] busy ratio: 0.735759
[rank 1, worker 50] busy ratio: 0.731013
[rank 1, worker 51] busy ratio: 0.725118
[rank 1, worker 52] busy ratio: 0.731438
[rank 2, worker 41] busy ratio: 0.776545
[rank 2, worker 42] busy ratio: 0.771429
[rank 2, worker 43] busy ratio: 0.770570
[rank 2, worker 44] busy ratio: 0.779715
[rank 0, worker 19] busy ratio: 0.770206
[rank 0, worker 20] busy ratio: 0.768987
[rank 0, worker 21] busy ratio: 0.825674
[rank 0, worker 22] busy ratio: 0.825674
[rank 3, worker 25] busy ratio: 0.804762
[rank 3, worker 26] busy ratio: 0.809524
[rank 1, worker 53] busy ratio: 0.723539
[rank 1, worker 54] busy ratio: 0.723539
[rank 1, worker 55] busy ratio: 0.729430
[rank 2, worker 45] busy ratio: 0.774960
[rank 2, worker 46] busy ratio: 0.779715
[rank 2, worker 47] busy ratio: 0.767036
[rank 0, worker 23] busy ratio: 0.801587
[rank 0, worker 24] busy ratio: 0.761076
[rank 0, worker 25] busy ratio: 0.751189
[rank 3, worker 27] busy ratio: 0.806349
[rank 3, worker 28] busy ratio: 0.820635
[rank 2, worker 48] busy ratio: 0.773376
[rank 2, worker 49] busy ratio: 0.772152
[rank 2, worker 50] busy ratio: 0.773734
[rank 2, worker 51] busy ratio: 0.775671
[rank 0, worker 26] busy ratio: 0.757911
[rank 0, worker 27] busy ratio: 0.748418
[rank 0, worker 28] busy ratio: 0.785714
[rank 3, worker 29] busy ratio: 0.804762
[rank 3, worker 30] busy ratio: 0.808241
[rank 3, worker 31] busy ratio: 0.801902
[rank 2, worker 52] busy ratio: 0.773376
[rank 2, worker 53] busy ratio: 0.766193
[rank 2, worker 54] busy ratio: 0.778481
[rank 2, worker 55] busy ratio: 0.780063
[rank 0, worker 29] busy ratio: 0.768621
[rank 0, worker 30] busy ratio: 0.771429
[rank 0, worker 31] busy ratio: 0.777778
[rank 3, worker 32] busy ratio: 0.805071
[rank 3, worker 33] busy ratio: 0.804762
[rank 0, worker 32] busy ratio: 0.761076
[rank 0, worker 33] busy ratio: 0.758730
[rank 0, worker 34] busy ratio: 0.751189
[rank 0, worker 35] busy ratio: 0.757528
[rank 3, worker 34] busy ratio: 0.798732
[rank 3, worker 35] busy ratio: 0.807937
[rank 3, worker 36] busy ratio: 0.791733
[rank 0, worker 36] busy ratio: 0.753555
[rank 0, worker 37] busy ratio: 0.760697
[rank 0, worker 38] busy ratio: 0.763867
[rank 0, worker 39] busy ratio: 0.755943
[rank 0, worker 40] busy ratio: 0.756329
[rank 0, worker 41] busy ratio: 0.754747
[rank 3, worker 37] busy ratio: 0.800000
[rank 3, worker 38] busy ratio: 0.797147
[rank 0, worker 42] busy ratio: 0.749604
[rank 0, worker 43] busy ratio: 0.746835
[rank 0, worker 44] busy ratio: 0.750000
[rank 0, worker 45] busy ratio: 0.768987
[rank 0, worker 46] busy ratio: 0.753943
[rank 0, worker 47] busy ratio: 0.742496
[rank 3, worker 39] busy ratio: 0.792063
[rank 3, worker 40] busy ratio: 0.797147
[rank 3, worker 41] busy ratio: 0.787639
[rank 0, worker 48] busy ratio: 0.743671
[rank 0, worker 49] busy ratio: 0.741680
[rank 0, worker 50] busy ratio: 0.761453
[rank 0, worker 51] busy ratio: 0.746835
[rank 3, worker 42] busy ratio: 0.795238
[rank 3, worker 43] busy ratio: 0.789223
[rank 0, worker 52] busy ratio: 0.747235
[rank 0, worker 53] busy ratio: 0.739336
[rank 0, worker 54] busy ratio: 0.742089
[rank 3, worker 44] busy ratio: 0.793978
[rank 3, worker 45] busy ratio: 0.799051
[rank 0, worker 55] busy ratio: 0.743671
[rank 3, worker 46] busy ratio: 0.787975
[rank 3, worker 47] busy ratio: 0.780063
[rank 3, worker 48] busy ratio: 0.792393
Loop time of 6.32783 on 224 procs for 100 steps with 2048000 atoms

[rank 3, worker 49] busy ratio: 0.781300
[rank 3, worker 50] busy ratio: 0.791139
Performance: 6826.981 tau/day, 15.803 timesteps/s
4337.8% CPU use with 4 MPI tasks x 56 OpenMP threads

MPI task timing breakdown:
Section |  min time  |  avg time  |  max time  |%varavg| %total
---------------------------------------------------------------
[rank 3, worker 51] busy ratio: 0.789557
[rank 3, worker 52] busy ratio: 0.792063
[rank 3, worker 53] busy ratio: 0.783228
Pair    | 1.4809     | 1.5635     | 1.6129     |   4.0 | 24.71
[rank 3, worker 54] busy ratio: 0.781300
[rank 3, worker 55] busy ratio: 0.791469
Neigh   | 0.22458    | 0.22747    | 0.23152    |   0.5 |  3.59
Comm    | 2.3102     | 2.5989     | 2.9367     |  13.9 | 41.07
Output  | 0.00023756 | 0.0096388  | 0.017367   |   7.1 |  0.15
Modify  | 0.83145    | 1.0147     | 1.2883     |  16.7 | 16.04
Other   |            | 0.9137     |            |       | 14.44

Nlocal:    512000 ave 512063 max 511907 min
Histogram: 1 0 0 0 1 0 0 0 0 2
Nghost:    118534 ave 118636 max 118416 min
Histogram: 1 0 0 0 0 2 0 0 0 1
Neighs:    0 ave 0 max 0 min
Histogram: 4 0 0 0 0 0 0 0 0 0
FullNghs:  3.8457e+07 ave 3.8468e+07 max 3.84444e+07 min
Histogram: 1 0 0 0 0 1 1 0 0 1

Total # of neighbors = 153828000
Ave neighs/atom = 75.1113
Neighbor list builds = 5
Dangerous builds not checked
Total wall time: 0:00:08
