LAMMPS (7 Aug 2019)
KOKKOS mode is enabled (../kokkos.cpp:85)
  will use up to 0 GPU(s) per node
  using 56 OpenMP thread(s) per MPI task
Lattice spacing in x,y,z = 1.6796 1.6796 1.6796
Created orthogonal box = (0 0 0) to (134.368 134.368 134.368)
  1 by 2 by 2 MPI processor grid
Created 2048000 atoms
  create_atoms CPU = 1.39319 secs
Neighbor list info ...
  update every 20 steps, delay 0 steps, check no
  max neighbors/atom: 2000, page size: 100000
  master list distance cutoff = 2.8
  ghost atom cutoff = 2.8
  binsize = 1.4, bins = 96 96 96
  1 neighbor lists, perpetual/occasional/extra = 1 0 0
  (1) pair lj/cut/kk, perpetual
      attributes: full, newton off, kokkos_device
      pair build: full/bin/kk/device
      stencil: full/bin/3d
      bin: kk/device
Setting up Verlet run ...
  Unit style    : lj
  Current step  : 0
  Time step     : 0.005
Per MPI rank memory allocation (min/avg/max) = 1166 | 1166 | 1166 Mbytes
Step Temp E_pair E_mol TotEng Press 
       0         1.44   -6.7733681            0   -4.6133691   -5.0196699 
     100   0.75921977   -5.7611315            0   -4.6223024   0.19208802 
[rank 0, worker 0] busy ratio: 0.919658
[rank 0, worker 1] busy ratio: 0.755594
[rank 0, worker 2] busy ratio: 0.755137
[rank 0, worker 3] busy ratio: 0.755137
[rank 0, worker 4] busy ratio: 0.732419
[rank 0, worker 5] busy ratio: 0.755137
[rank 0, worker 6] busy ratio: 0.751286
[rank 0, worker 7] busy ratio: 0.758148
[rank 0, worker 8] busy ratio: 0.734589
[rank 0, worker 9] busy ratio: 0.749141
[rank 0, worker 10] busy ratio: 0.749147
[rank 0, worker 11] busy ratio: 0.739726
[rank 0, worker 12] busy ratio: 0.736752
[rank 0, worker 13] busy ratio: 0.748288
[rank 0, worker 14] busy ratio: 0.736301
[rank 0, worker 15] busy ratio: 0.736301
[rank 3, worker 0] busy ratio: 0.943590
[rank 3, worker 1] busy ratio: 0.735395
[rank 3, worker 2] busy ratio: 0.759036
[rank 3, worker 3] busy ratio: 0.749571
[rank 3, worker 4] busy ratio: 0.749141
[rank 3, worker 5] busy ratio: 0.722127
[rank 3, worker 6] busy ratio: 0.722127
[rank 3, worker 7] busy ratio: 0.751286
[rank 3, worker 8] busy ratio: 0.734134
[rank 3, worker 9] busy ratio: 0.755137
[rank 3, worker 10] busy ratio: 0.724786
[rank 3, worker 11] busy ratio: 0.724786
[rank 3, worker 12] busy ratio: 0.708904
[rank 3, worker 13] busy ratio: 0.708904
[rank 3, worker 14] busy ratio: 0.749571
[rank 3, worker 15] busy ratio: 0.743986
[rank 3, worker 16] busy ratio: 0.737113
[rank 3, worker 17] busy ratio: 0.739280
[rank 3, worker 18] busy ratio: 0.701031
[rank 3, worker 19] busy ratio: 0.718213
[rank 3, worker 20] busy ratio: 0.717466
[rank 3, worker 21] busy ratio: 0.714777
[rank 3, worker 22] busy ratio: 0.735849
[rank 3, worker 23] busy ratio: 0.746141
[rank 3, worker 24] busy ratio: 0.716981
[rank 3, worker 25] busy ratio: 0.708904
[rank 3, worker 26] busy ratio: 0.692308
[rank 3, worker 27] busy ratio: 0.710616
[rank 3, worker 28] busy ratio: 0.670103
[rank 3, worker 29] busy ratio: 0.652921
[rank 3, worker 30] busy ratio: 0.668954
[rank 3, worker 31] busy ratio: 0.709622
[rank 3, worker 32] busy ratio: 0.669521
[rank 3, worker 33] busy ratio: 0.684391
[rank 3, worker 34] busy ratio: 0.679245
[rank 3, worker 35] busy ratio: 0.662671
[rank 3, worker 36] busy ratio: 0.660959
[rank 3, worker 37] busy ratio: 0.652991
[rank 3, worker 38] busy ratio: 0.663248
[rank 3, worker 39] busy ratio: 0.666667
[rank 3, worker 40] busy ratio: 0.657534
[rank 3, worker 41] busy ratio: 0.663248
[rank 3, worker 42] busy ratio: 0.673540
[rank 3, worker 43] busy ratio: 0.647863
[rank 3, worker 44] busy ratio: 0.650685
[rank 3, worker 45] busy ratio: 0.641509
[rank 3, worker 46] busy ratio: 0.650685
[rank 0, worker 16] busy ratio: 0.774359
[rank 0, worker 17] busy ratio: 0.742710
[rank 3, worker 47] busy ratio: 0.664384
[rank 3, worker 48] busy ratio: 0.667238
[rank 3, worker 49] busy ratio: 0.642123
[rank 3, worker 50] busy ratio: 0.664957
[rank 3, worker 51] busy ratio: 0.658120
[rank 3, worker 52] busy ratio: 0.662093
[rank 3, worker 53] busy ratio: 0.647260
[rank 3, worker 54] busy ratio: 0.651801
[rank 3, worker 55] busy ratio: 0.661538
[rank 0, worker 18] busy ratio: 0.769231
[rank 0, worker 19] busy ratio: 0.722127
[rank 0, worker 20] busy ratio: 0.720890
[rank 1, worker 0] busy ratio: 0.931857
[rank 1, worker 1] busy ratio: 0.744425
[rank 1, worker 2] busy ratio: 0.778351
[rank 1, worker 3] busy ratio: 0.776068
[rank 1, worker 4] busy ratio: 0.750427
[rank 1, worker 5] busy ratio: 0.743151
[rank 1, worker 6] busy ratio: 0.722603
[rank 1, worker 7] busy ratio: 0.772260
[rank 1, worker 8] busy ratio: 0.763699
[rank 0, worker 21] busy ratio: 0.738832
[rank 0, worker 22] busy ratio: 0.726027
[rank 1, worker 9] busy ratio: 0.750427
[rank 1, worker 10] busy ratio: 0.733333
[rank 1, worker 11] busy ratio: 0.719658
[rank 1, worker 12] busy ratio: 0.722127
[rank 1, worker 13] busy ratio: 0.717949
[rank 1, worker 14] busy ratio: 0.745299
[rank 1, worker 15] busy ratio: 0.755137
[rank 1, worker 16] busy ratio: 0.740171
[rank 1, worker 17] busy ratio: 0.734589
[rank 1, worker 18] busy ratio: 0.710120
[rank 1, worker 19] busy ratio: 0.699659
[rank 1, worker 20] busy ratio: 0.696918
[rank 1, worker 21] busy ratio: 0.741438
[rank 1, worker 22] busy ratio: 0.749571
[rank 1, worker 23] busy ratio: 0.734589
[rank 1, worker 24] busy ratio: 0.703072
[rank 1, worker 25] busy ratio: 0.694017
[rank 1, worker 26] busy ratio: 0.694539
[rank 1, worker 27] busy ratio: 0.701365
[rank 1, worker 28] busy ratio: 0.683219
[rank 1, worker 29] busy ratio: 0.681507
[rank 1, worker 30] busy ratio: 0.679795
[rank 1, worker 31] busy ratio: 0.668954
[rank 0, worker 23] busy ratio: 0.729452
[rank 0, worker 24] busy ratio: 0.722127
[rank 2, worker 0] busy ratio: 0.923077
[rank 2, worker 1] busy ratio: 0.728988
[rank 2, worker 2] busy ratio: 0.761986
[rank 2, worker 3] busy ratio: 0.770154
[rank 2, worker 4] busy ratio: 0.732419
[rank 2, worker 5] busy ratio: 0.732877
[rank 2, worker 6] busy ratio: 0.720412
[rank 2, worker 7] busy ratio: 0.768836
[rank 2, worker 8] busy ratio: 0.765812
[rank 2, worker 9] busy ratio: 0.758974
[rank 2, worker 10] busy ratio: 0.712329
[rank 2, worker 11] busy ratio: 0.714530
[rank 2, worker 12] busy ratio: 0.710616
[rank 2, worker 13] busy ratio: 0.710616
[rank 2, worker 14] busy ratio: 0.743590
[rank 2, worker 15] busy ratio: 0.755137
[rank 2, worker 16] busy ratio: 0.768836
[rank 2, worker 17] busy ratio: 0.736301
[rank 2, worker 18] busy ratio: 0.708405
[rank 2, worker 19] busy ratio: 0.702564
[rank 2, worker 20] busy ratio: 0.717466
[rank 2, worker 21] busy ratio: 0.736301
[rank 2, worker 22] busy ratio: 0.726496
[rank 2, worker 23] busy ratio: 0.738014
[rank 2, worker 24] busy ratio: 0.715753
[rank 2, worker 25] busy ratio: 0.700855
[rank 2, worker 26] busy ratio: 0.699145
[rank 2, worker 27] busy ratio: 0.701365
[rank 2, worker 28] busy ratio: 0.715753
[rank 2, worker 29] busy ratio: 0.688356
[rank 2, worker 30] busy ratio: 0.660377
[rank 2, worker 31] busy ratio: 0.664957
[rank 2, worker 32] busy ratio: 0.676923
[rank 2, worker 33] busy ratio: 0.668954
[rank 2, worker 34] busy ratio: 0.675214
[rank 2, worker 35] busy ratio: 0.659247
[rank 2, worker 36] busy ratio: 0.662671
[rank 2, worker 37] busy ratio: 0.651282
[rank 2, worker 38] busy ratio: 0.661538
[rank 2, worker 39] busy ratio: 0.679181
[rank 2, worker 40] busy ratio: 0.650685
[rank 2, worker 41] busy ratio: 0.674658
[rank 2, worker 42] busy ratio: 0.665523
[rank 2, worker 43] busy ratio: 0.656947
[rank 1, worker 32] busy ratio: 0.680342
[rank 1, worker 33] busy ratio: 0.675768
[rank 1, worker 34] busy ratio: 0.665529
[rank 1, worker 35] busy ratio: 0.664957
[rank 0, worker 25] busy ratio: 0.737564
[rank 0, worker 26] busy ratio: 0.713551
[rank 0, worker 27] busy ratio: 0.722603
[rank 2, worker 44] busy ratio: 0.659829
[rank 2, worker 45] busy ratio: 0.718910
[rank 2, worker 46] busy ratio: 0.662671
[rank 2, worker 47] busy ratio: 0.656410
[rank 2, worker 48] busy ratio: 0.670085
[rank 2, worker 49] busy ratio: 0.655290
[rank 2, worker 50] busy ratio: 0.657534
[rank 2, worker 51] busy ratio: 0.659829
[rank 2, worker 52] busy ratio: 0.662116
[rank 2, worker 53] busy ratio: 0.660959
[rank 2, worker 54] busy ratio: 0.666667
[rank 2, worker 55] busy ratio: 0.668376
[rank 1, worker 36] busy ratio: 0.661538
[rank 1, worker 37] busy ratio: 0.657534
[rank 1, worker 38] busy ratio: 0.668376
[rank 0, worker 28] busy ratio: 0.765009
[rank 0, worker 29] busy ratio: 0.722603
[rank 1, worker 39] busy ratio: 0.673504
[rank 1, worker 40] busy ratio: 0.668942
[rank 1, worker 41] busy ratio: 0.651877
[rank 0, worker 30] busy ratio: 0.715266
[rank 0, worker 31] busy ratio: 0.719658
[rank 0, worker 32] busy ratio: 0.703767
[rank 1, worker 42] busy ratio: 0.655290
[rank 1, worker 43] busy ratio: 0.651877
[rank 1, worker 44] busy ratio: 0.659829
[rank 0, worker 33] busy ratio: 0.722603
[rank 0, worker 34] busy ratio: 0.710120
[rank 1, worker 45] busy ratio: 0.656410
[rank 1, worker 46] busy ratio: 0.665529
[rank 1, worker 47] busy ratio: 0.663823
[rank 1, worker 48] busy ratio: 0.661538
[rank 1, worker 49] busy ratio: 0.661538
[rank 1, worker 50] busy ratio: 0.729915
[rank 0, worker 35] busy ratio: 0.714041
[rank 0, worker 36] busy ratio: 0.698630
[rank 0, worker 37] busy ratio: 0.708904
[rank 1, worker 51] busy ratio: 0.653584
[rank 1, worker 52] busy ratio: 0.678632
[rank 1, worker 53] busy ratio: 0.663248
[rank 1, worker 54] busy ratio: 0.662116
[rank 0, worker 38] busy ratio: 0.707192
[rank 0, worker 39] busy ratio: 0.765812
[rank 1, worker 55] busy ratio: 0.670648
[rank 0, worker 40] busy ratio: 0.693493
[rank 0, worker 41] busy ratio: 0.707692
[rank 0, worker 42] busy ratio: 0.711604
[rank 0, worker 43] busy ratio: 0.725256
[rank 0, worker 44] busy ratio: 0.707192
[rank 0, worker 45] busy ratio: 0.703767
[rank 0, worker 46] busy ratio: 0.716239
[rank 0, worker 47] busy ratio: 0.724786
[rank 0, worker 48] busy ratio: 0.707192
[rank 0, worker 49] busy ratio: 0.703767
[rank 0, worker 50] busy ratio: 0.700342
[rank 0, worker 51] busy ratio: 0.695726
[rank 0, worker 52] busy ratio: 0.705983
[rank 0, worker 53] busy ratio: 0.695205
[rank 0, worker 54] busy ratio: 0.706485
[rank 0, worker 55] busy ratio: 0.698630
Loop time of 5.86196 on 224 procs for 100 steps with 2048000 atoms

Performance: 7369.548 tau/day, 17.059 timesteps/s
3867.8% CPU use with 4 MPI tasks x 56 OpenMP threads

MPI task timing breakdown:
Section |  min time  |  avg time  |  max time  |%varavg| %total
---------------------------------------------------------------
Pair    | 1.1056     | 1.1402     | 1.1735     |   2.7 | 19.45
Neigh   | 0.22152    | 0.2335     | 0.245      |   2.1 |  3.98
Comm    | 2.2382     | 2.6355     | 2.9796     |  17.3 | 44.96
Output  | 0.00015083 | 0.0069089  | 0.015273   |   6.6 |  0.12
Modify  | 0.084217   | 0.11471    | 0.12799    |   5.2 |  1.96
Other   |            | 1.731      |            |       | 29.53

Nlocal:    512000 ave 512063 max 511907 min
Histogram: 1 0 0 0 1 0 0 0 0 2
Nghost:    118534 ave 118636 max 118416 min
Histogram: 1 0 0 0 0 2 0 0 0 1
Neighs:    0 ave 0 max 0 min
Histogram: 4 0 0 0 0 0 0 0 0 0
FullNghs:  3.8457e+07 ave 3.8468e+07 max 3.84444e+07 min
Histogram: 1 0 0 0 0 1 1 0 0 1

Total # of neighbors = 153828000
Ave neighs/atom = 75.1113
Neighbor list builds = 5
Dangerous builds not checked
Total wall time: 0:00:07
