LAMMPS (7 Aug 2019)
KOKKOS mode is enabled (../kokkos.cpp:85)
  will use up to 0 GPU(s) per node
  using 56 OpenMP thread(s) per MPI task
Lattice spacing in x,y,z = 1.6796 1.6796 1.6796
Created orthogonal box = (0 0 0) to (403.103 403.103 403.103)
  1 by 2 by 2 MPI processor grid
Created 55296000 atoms
  create_atoms CPU = 16.453 secs
Neighbor list info ...
  update every 20 steps, delay 0 steps, check no
  max neighbors/atom: 2000, page size: 100000
  master list distance cutoff = 2.8
  ghost atom cutoff = 2.8
  binsize = 1.4, bins = 288 288 288
  1 neighbor lists, perpetual/occasional/extra = 1 0 0
  (1) pair lj/cut/kk, perpetual
      attributes: full, newton off, kokkos_device
      pair build: full/bin/kk/device
      stencil: full/bin/3d
      bin: kk/device
Setting up Verlet run ...
  Unit style    : lj
  Current step  : 0
  Time step     : 0.005
Per MPI rank memory allocation (min/avg/max) = 2.709e+04 | 2.709e+04 | 2.709e+04 Mbytes
Step Temp E_pair E_mol TotEng Press 
       0         1.44   -6.7733681            0   -4.6133681   -5.0196693 
     100   0.75942427   -5.7614518            0   -4.6223154   0.19008332 
[rank 1, worker 0] busy ratio: 0.979153
[rank 1, worker 1] busy ratio: 0.840178
[rank 1, worker 2] busy ratio: 0.847303
[rank 1, worker 3] busy ratio: 0.861716
[rank 1, worker 4] busy ratio: 0.760641
[rank 1, worker 5] busy ratio: 0.743303
[rank 1, worker 6] busy ratio: 0.748016
[rank 1, worker 7] busy ratio: 0.864138
[rank 3, worker 0] busy ratio: 0.984526
[rank 3, worker 1] busy ratio: 0.798169
[rank 3, worker 2] busy ratio: 0.812189
[rank 3, worker 3] busy ratio: 0.806404
[rank 3, worker 4] busy ratio: 0.733270
[rank 3, worker 5] busy ratio: 0.711267
[rank 3, worker 6] busy ratio: 0.707442
[rank 3, worker 7] busy ratio: 0.807775
[rank 3, worker 8] busy ratio: 0.820420
[rank 3, worker 9] busy ratio: 0.824432
[rank 3, worker 10] busy ratio: 0.713632
[rank 3, worker 11] busy ratio: 0.714516
[rank 1, worker 8] busy ratio: 0.864389
[rank 1, worker 9] busy ratio: 0.875303
[rank 1, worker 10] busy ratio: 0.742165
[rank 1, worker 11] busy ratio: 0.748890
[rank 1, worker 12] busy ratio: 0.745560
[rank 1, worker 13] busy ratio: 0.744552
[rank 1, worker 14] busy ratio: 0.874412
[rank 1, worker 15] busy ratio: 0.878935
[rank 1, worker 16] busy ratio: 0.881506
[rank 1, worker 17] busy ratio: 0.878413
[rank 1, worker 18] busy ratio: 0.744418
[rank 1, worker 19] busy ratio: 0.745459
[rank 1, worker 20] busy ratio: 0.749664
[rank 1, worker 21] busy ratio: 0.886348
[rank 2, worker 0] busy ratio: 0.986012
[rank 2, worker 1] busy ratio: 0.810909
[rank 2, worker 2] busy ratio: 0.827415
[rank 2, worker 3] busy ratio: 0.836449
[rank 2, worker 4] busy ratio: 0.744581
[rank 2, worker 5] busy ratio: 0.731629
[rank 2, worker 6] busy ratio: 0.731163
[rank 2, worker 7] busy ratio: 0.842905
[rank 2, worker 8] busy ratio: 0.850572
[rank 2, worker 9] busy ratio: 0.855414
[rank 0, worker 0] busy ratio: 0.979141
[rank 0, worker 1] busy ratio: 0.823213
[rank 0, worker 2] busy ratio: 0.826719
[rank 0, worker 3] busy ratio: 0.834679
[rank 3, worker 12] busy ratio: 0.712191
[rank 3, worker 13] busy ratio: 0.711518
[rank 3, worker 14] busy ratio: 0.822706
[rank 3, worker 15] busy ratio: 0.827011
[rank 3, worker 16] busy ratio: 0.827122
[rank 3, worker 17] busy ratio: 0.831854
[rank 3, worker 18] busy ratio: 0.711210
[rank 3, worker 19] busy ratio: 0.709942
[rank 1, worker 22] busy ratio: 0.882836
[rank 1, worker 23] busy ratio: 0.885945
[rank 1, worker 24] busy ratio: 0.743072
[rank 2, worker 10] busy ratio: 0.732338
[rank 2, worker 11] busy ratio: 0.727395
[rank 2, worker 12] busy ratio: 0.730624
[rank 2, worker 13] busy ratio: 0.732643
[rank 2, worker 14] busy ratio: 0.855683
[rank 2, worker 15] busy ratio: 0.850148
[rank 2, worker 16] busy ratio: 0.859333
[rank 2, worker 17] busy ratio: 0.868074
[rank 2, worker 18] busy ratio: 0.724031
[rank 2, worker 19] busy ratio: 0.722013
[rank 2, worker 20] busy ratio: 0.723396
[rank 2, worker 21] busy ratio: 0.862255
[rank 2, worker 22] busy ratio: 0.863618
[rank 2, worker 23] busy ratio: 0.863331
[rank 0, worker 4] busy ratio: 0.747004
[rank 0, worker 5] busy ratio: 0.736240
[rank 0, worker 6] busy ratio: 0.731835
[rank 0, worker 7] busy ratio: 0.840753
[rank 0, worker 8] busy ratio: 0.848998
[rank 0, worker 9] busy ratio: 0.849227
[rank 0, worker 10] busy ratio: 0.737961
[rank 0, worker 11] busy ratio: 0.729450
[rank 0, worker 12] busy ratio: 0.735136
[rank 0, worker 13] busy ratio: 0.735334
[rank 3, worker 20] busy ratio: 0.715112
[rank 3, worker 21] busy ratio: 0.830374
[rank 3, worker 22] busy ratio: 0.828894
[rank 1, worker 25] busy ratio: 0.744014
[rank 1, worker 26] busy ratio: 0.741962
[rank 2, worker 24] busy ratio: 0.725683
[rank 2, worker 25] busy ratio: 0.727432
[rank 2, worker 26] busy ratio: 0.732275
[rank 0, worker 14] busy ratio: 0.855952
[rank 0, worker 15] busy ratio: 0.856759
[rank 0, worker 16] busy ratio: 0.860525
[rank 3, worker 23] busy ratio: 0.824970
[rank 3, worker 24] busy ratio: 0.712998
[rank 1, worker 27] busy ratio: 0.744687
[rank 1, worker 28] busy ratio: 0.620838
[rank 2, worker 27] busy ratio: 0.727432
[rank 2, worker 28] busy ratio: 0.623333
[rank 0, worker 17] busy ratio: 0.860390
[rank 0, worker 18] busy ratio: 0.738435
[rank 3, worker 25] busy ratio: 0.704386
[rank 3, worker 26] busy ratio: 0.711018
[rank 1, worker 29] busy ratio: 0.582335
[rank 1, worker 30] busy ratio: 0.581696
[rank 2, worker 29] busy ratio: 0.597011
[rank 2, worker 30] busy ratio: 0.592114
[rank 0, worker 19] busy ratio: 0.733961
[rank 0, worker 20] busy ratio: 0.733656
[rank 3, worker 27] busy ratio: 0.703350
[rank 3, worker 28] busy ratio: 0.697671
[rank 1, worker 31] busy ratio: 0.563299
[rank 1, worker 32] busy ratio: 0.562761
[rank 2, worker 31] busy ratio: 0.586518
[rank 2, worker 32] busy ratio: 0.592947
[rank 0, worker 21] busy ratio: 0.859871
[rank 0, worker 22] busy ratio: 0.862139
[rank 3, worker 29] busy ratio: 0.670659
[rank 3, worker 30] busy ratio: 0.682723
[rank 3, worker 31] busy ratio: 0.682992
[rank 1, worker 33] busy ratio: 0.560280
[rank 1, worker 34] busy ratio: 0.552267
[rank 2, worker 33] busy ratio: 0.598089
[rank 2, worker 34] busy ratio: 0.603822
[rank 0, worker 23] busy ratio: 0.865654
[rank 0, worker 24] busy ratio: 0.736715
[rank 3, worker 32] busy ratio: 0.671915
[rank 3, worker 33] busy ratio: 0.667922
[rank 1, worker 35] busy ratio: 0.551668
[rank 1, worker 36] busy ratio: 0.544672
[rank 1, worker 37] busy ratio: 0.575370
[rank 2, worker 35] busy ratio: 0.568277
[rank 2, worker 36] busy ratio: 0.577234
[rank 0, worker 25] busy ratio: 0.737692
[rank 0, worker 26] busy ratio: 0.734562
[rank 3, worker 34] busy ratio: 0.671825
[rank 3, worker 35] busy ratio: 0.681109
[rank 1, worker 38] busy ratio: 0.558649
[rank 1, worker 39] busy ratio: 0.552476
[rank 2, worker 37] busy ratio: 0.591227
[rank 2, worker 38] busy ratio: 0.593838
[rank 2, worker 39] busy ratio: 0.579812
[rank 2, worker 40] busy ratio: 0.592787
[rank 0, worker 27] busy ratio: 0.732213
[rank 0, worker 28] busy ratio: 0.620959
[rank 0, worker 29] busy ratio: 0.582234
[rank 0, worker 30] busy ratio: 0.591900
[rank 3, worker 36] busy ratio: 0.673664
[rank 3, worker 37] busy ratio: 0.683842
[rank 3, worker 38] busy ratio: 0.669762
[rank 1, worker 40] busy ratio: 0.564375
[rank 1, worker 41] busy ratio: 0.534167
[rank 2, worker 41] busy ratio: 0.586114
[rank 2, worker 42] busy ratio: 0.585028
[rank 0, worker 31] busy ratio: 0.586652
[rank 0, worker 32] busy ratio: 0.588750
[rank 0, worker 33] busy ratio: 0.599650
[rank 3, worker 39] busy ratio: 0.662630
[rank 3, worker 40] busy ratio: 0.665007
[rank 1, worker 42] busy ratio: 0.550040
[rank 1, worker 43] busy ratio: 0.546152
[rank 2, worker 43] busy ratio: 0.567469
[rank 2, worker 44] busy ratio: 0.551339
[rank 0, worker 34] busy ratio: 0.587404
[rank 0, worker 35] busy ratio: 0.574331
[rank 3, worker 41] busy ratio: 0.667294
[rank 3, worker 42] busy ratio: 0.679952
[rank 1, worker 44] busy ratio: 0.541162
[rank 1, worker 45] busy ratio: 0.564568
[rank 2, worker 45] busy ratio: 0.573523
[rank 2, worker 46] busy ratio: 0.571794
[rank 0, worker 36] busy ratio: 0.578615
[rank 0, worker 37] busy ratio: 0.588481
[rank 3, worker 43] busy ratio: 0.677389
[rank 3, worker 44] busy ratio: 0.671331
[rank 3, worker 45] busy ratio: 0.673758
[rank 1, worker 46] busy ratio: 0.556991
[rank 1, worker 47] busy ratio: 0.538151
[rank 2, worker 47] busy ratio: 0.559413
[rank 2, worker 48] busy ratio: 0.551924
[rank 0, worker 38] busy ratio: 0.579634
[rank 0, worker 39] busy ratio: 0.555690
[rank 3, worker 46] busy ratio: 0.660791
[rank 3, worker 47] busy ratio: 0.663482
[rank 1, worker 48] busy ratio: 0.547485
[rank 1, worker 49] busy ratio: 0.573735
[rank 1, worker 50] busy ratio: 0.535388
[rank 2, worker 49] busy ratio: 0.579847
[rank 2, worker 50] busy ratio: 0.567066
[rank 0, worker 40] busy ratio: 0.581327
[rank 0, worker 41] busy ratio: 0.572716
[rank 3, worker 48] busy ratio: 0.656216
[rank 3, worker 49] busy ratio: 0.671555
[rank 3, worker 50] busy ratio: 0.672003
[rank 1, worker 51] busy ratio: 0.554898
[rank 1, worker 52] busy ratio: 0.561743
[rank 2, worker 51] busy ratio: 0.568335
[rank 2, worker 52] busy ratio: 0.586518
[rank 0, worker 42] busy ratio: 0.563627
[rank 0, worker 43] busy ratio: 0.564703
[rank 3, worker 51] busy ratio: 0.675770
[rank 3, worker 52] busy ratio: 0.668820
[rank 1, worker 53] busy ratio: 0.536992
[rank 1, worker 54] busy ratio: 0.561146
[rank 1, worker 55] busy ratio: 0.542969
[rank 2, worker 53] busy ratio: 0.563778
[rank 2, worker 54] busy ratio: 0.570564
[rank 0, worker 44] busy ratio: 0.562895
[rank 0, worker 45] busy ratio: 0.578445
[rank 3, worker 53] busy ratio: 0.661195
[rank 3, worker 54] busy ratio: 0.660613
[rank 2, worker 55] busy ratio: 0.573179
[rank 0, worker 46] busy ratio: 0.558994
[rank 0, worker 47] busy ratio: 0.548426
[rank 0, worker 48] busy ratio: 0.552536
[rank 0, worker 49] busy ratio: 0.565165
[rank 3, worker 55] busy ratio: 0.629156
[rank 0, worker 50] busy ratio: 0.570410
[rank 0, worker 51] busy ratio: 0.573369
[rank 0, worker 52] busy ratio: 0.596907
[rank 0, worker 53] busy ratio: 0.574465
[rank 0, worker 54] busy ratio: 0.566451
[rank 0, worker 55] busy ratio: 0.585241
Loop time of 74.3626 on 224 procs for 100 steps with 55296000 atoms

Performance: 580.938 tau/day, 1.345 timesteps/s
3840.6% CPU use with 4 MPI tasks x 56 OpenMP threads

MPI task timing breakdown:
Section |  min time  |  avg time  |  max time  |%varavg| %total
---------------------------------------------------------------
Pair    | 51.162     | 55.125     | 57.037     |  31.2 | 74.13
Neigh   | 6.6367     | 6.878      | 7.4407     |  12.5 |  9.25
Comm    | 5.798      | 7.2979     | 9.7797     |  55.8 |  9.81
Output  | 0.0036898  | 0.20015    | 0.331      |  27.0 |  0.27
Modify  | 1.6583     | 1.8837     | 2.2049     |  14.6 |  2.53
Other   |            | 2.978      |            |       |  4.00

Nlocal:    1.3824e+07 ave 1.38247e+07 max 1.38235e+07 min
Histogram: 1 1 0 0 0 0 1 0 0 1
Nghost:    1.01912e+06 ave 1.01965e+06 max 1.0184e+06 min
Histogram: 1 0 0 0 1 0 0 0 1 1
Neighs:    0 ave 0 max 0 min
Histogram: 4 0 0 0 0 0 0 0 0 0
FullNghs:  1.0383e+09 ave 1.03837e+09 max 1.03824e+09 min
Histogram: 1 0 1 0 0 1 0 0 0 1

Total # of neighbors = 4.1532e+09
Ave neighs/atom = 75.1085
Neighbor list builds = 5
Dangerous builds not checked
Total wall time: 0:01:40
