LAMMPS (7 Aug 2019)
KOKKOS mode is enabled (../kokkos.cpp:85)
  will use up to 0 GPU(s) per node
  using 56 OpenMP thread(s) per MPI task
Lattice spacing in x,y,z = 1.6796 1.6796 1.6796
Created orthogonal box = (0 0 0) to (201.552 201.552 201.552)
  1 by 2 by 2 MPI processor grid
Created 6912000 atoms
  create_atoms CPU = 3.61121 secs
Neighbor list info ...
  update every 20 steps, delay 0 steps, check no
  max neighbors/atom: 2000, page size: 100000
  master list distance cutoff = 2.8
  ghost atom cutoff = 2.8
  binsize = 1.4, bins = 144 144 144
  1 neighbor lists, perpetual/occasional/extra = 1 0 0
  (1) pair lj/cut/kk, perpetual
      attributes: full, newton off, kokkos_device
      pair build: full/bin/kk/device
      stencil: full/bin/3d
      bin: kk/device
Setting up Verlet run ...
  Unit style    : lj
  Current step  : 0
  Time step     : 0.005
Per MPI rank memory allocation (min/avg/max) = 3650 | 3650 | 3650 Mbytes
Step Temp E_pair E_mol TotEng Press 
       0         1.44   -6.7733681            0   -4.6133684   -5.0196694 
     100   0.75929363   -5.7612508            0   -4.6223105   0.19076255 
[rank 0, worker 0] busy ratio: 0.991536
[rank 0, worker 1] busy ratio: 0.927096
[rank 0, worker 2] busy ratio: 0.929526
[rank 0, worker 3] busy ratio: 0.938032
[rank 3, worker 0] busy ratio: 0.993932
[rank 3, worker 1] busy ratio: 0.914842
[rank 3, worker 2] busy ratio: 0.916262
[rank 3, worker 3] busy ratio: 0.910085
[rank 3, worker 4] busy ratio: 0.883495
[rank 3, worker 5] busy ratio: 0.849332
[rank 3, worker 6] busy ratio: 0.873479
[rank 3, worker 7] busy ratio: 0.912515
[rank 3, worker 8] busy ratio: 0.917476
[rank 3, worker 9] busy ratio: 0.906440
[rank 3, worker 10] busy ratio: 0.868932
[rank 3, worker 11] busy ratio: 0.868932
[rank 3, worker 12] busy ratio: 0.854015
[rank 3, worker 13] busy ratio: 0.867718
[rank 3, worker 14] busy ratio: 0.913730
[rank 3, worker 15] busy ratio: 0.896719
[rank 3, worker 16] busy ratio: 0.911408
[rank 3, worker 17] busy ratio: 0.908870
[rank 3, worker 18] busy ratio: 0.883777
[rank 3, worker 19] busy ratio: 0.862697
[rank 3, worker 20] busy ratio: 0.883212
[rank 3, worker 21] busy ratio: 0.915049
[rank 0, worker 4] busy ratio: 0.902795
[rank 0, worker 5] busy ratio: 0.891859
[rank 0, worker 6] busy ratio: 0.881068
[rank 0, worker 7] busy ratio: 0.935680
[rank 0, worker 8] busy ratio: 0.933252
[rank 0, worker 9] busy ratio: 0.931956
[rank 0, worker 10] busy ratio: 0.896594
[rank 0, worker 11] busy ratio: 0.884428
[rank 0, worker 12] busy ratio: 0.888214
[rank 3, worker 22] busy ratio: 0.901580
[rank 3, worker 23] busy ratio: 0.901699
[rank 3, worker 24] busy ratio: 0.871359
[rank 1, worker 0] busy ratio: 0.993917
[rank 1, worker 1] busy ratio: 0.928311
[rank 1, worker 2] busy ratio: 0.922330
[rank 1, worker 3] busy ratio: 0.923544
[rank 1, worker 4] busy ratio: 0.871046
[rank 1, worker 5] busy ratio: 0.878345
[rank 1, worker 6] busy ratio: 0.870146
[rank 1, worker 7] busy ratio: 0.923451
[rank 1, worker 8] busy ratio: 0.920000
[rank 0, worker 13] busy ratio: 0.878493
[rank 0, worker 14] busy ratio: 0.938107
[rank 0, worker 15] busy ratio: 0.929526
[rank 3, worker 25] busy ratio: 0.850365
[rank 3, worker 26] busy ratio: 0.869988
[rank 0, worker 16] busy ratio: 0.935601
[rank 0, worker 17] busy ratio: 0.936817
[rank 3, worker 27] busy ratio: 0.856796
[rank 3, worker 28] busy ratio: 0.873633
[rank 3, worker 29] busy ratio: 0.851762
[rank 0, worker 18] busy ratio: 0.877427
[rank 0, worker 19] busy ratio: 0.883495
[rank 3, worker 30] busy ratio: 0.877129
[rank 3, worker 31] busy ratio: 0.872418
[rank 3, worker 32] busy ratio: 0.871203
[rank 0, worker 20] busy ratio: 0.882282
[rank 0, worker 21] busy ratio: 0.936817
[rank 3, worker 33] busy ratio: 0.891859
[rank 3, worker 34] busy ratio: 0.873479
[rank 3, worker 35] busy ratio: 0.884569
[rank 0, worker 22] busy ratio: 0.935680
[rank 0, worker 23] busy ratio: 0.934386
[rank 3, worker 36] busy ratio: 0.880923
[rank 3, worker 37] busy ratio: 0.879708
[rank 0, worker 24] busy ratio: 0.877427
[rank 0, worker 25] busy ratio: 0.868613
[rank 3, worker 38] busy ratio: 0.884709
[rank 3, worker 39] busy ratio: 0.866343
[rank 0, worker 26] busy ratio: 0.876214
[rank 0, worker 27] busy ratio: 0.875000
[rank 3, worker 40] busy ratio: 0.877278
[rank 3, worker 41] busy ratio: 0.876214
[rank 3, worker 42] busy ratio: 0.866343
[rank 0, worker 28] busy ratio: 0.866343
[rank 0, worker 29] busy ratio: 0.840633
[rank 0, worker 30] busy ratio: 0.849148
[rank 0, worker 31] busy ratio: 0.848117
[rank 0, worker 32] busy ratio: 0.857837
[rank 3, worker 43] busy ratio: 0.872418
[rank 3, worker 44] busy ratio: 0.881995
[rank 1, worker 9] busy ratio: 0.929612
[rank 1, worker 10] busy ratio: 0.887136
[rank 1, worker 11] busy ratio: 0.869988
[rank 1, worker 12] busy ratio: 0.859223
[rank 1, worker 13] busy ratio: 0.889429
[rank 1, worker 14] busy ratio: 0.928398
[rank 1, worker 15] busy ratio: 0.902913
[rank 1, worker 16] busy ratio: 0.918689
[rank 1, worker 17] busy ratio: 0.911300
[rank 1, worker 18] busy ratio: 0.893333
[rank 1, worker 19] busy ratio: 0.867558
[rank 1, worker 20] busy ratio: 0.891859
[rank 1, worker 21] busy ratio: 0.924757
[rank 1, worker 22] busy ratio: 0.918591
[rank 1, worker 23] busy ratio: 0.908870
[rank 1, worker 24] busy ratio: 0.871359
[rank 1, worker 25] busy ratio: 0.869988
[rank 1, worker 26] busy ratio: 0.871359
[rank 1, worker 27] busy ratio: 0.861650
[rank 1, worker 28] busy ratio: 0.849148
[rank 1, worker 29] busy ratio: 0.813107
[rank 1, worker 30] busy ratio: 0.847087
[rank 1, worker 31] busy ratio: 0.838200
[rank 0, worker 33] busy ratio: 0.859052
[rank 0, worker 34] busy ratio: 0.867397
[rank 3, worker 45] busy ratio: 0.889697
[rank 3, worker 46] busy ratio: 0.888214
[rank 1, worker 32] busy ratio: 0.811893
[rank 1, worker 33] busy ratio: 0.854192
[rank 1, worker 34] busy ratio: 0.852977
[rank 0, worker 35] busy ratio: 0.838396
[rank 0, worker 36] busy ratio: 0.865128
[rank 3, worker 47] busy ratio: 0.863913
[rank 3, worker 48] busy ratio: 0.890777
[rank 3, worker 49] busy ratio: 0.872727
[rank 1, worker 35] busy ratio: 0.846902
[rank 1, worker 36] busy ratio: 0.855758
[rank 0, worker 37] busy ratio: 0.867397
[rank 0, worker 38] busy ratio: 0.861314
[rank 3, worker 50] busy ratio: 0.883354
[rank 3, worker 51] busy ratio: 0.878345
[rank 1, worker 37] busy ratio: 0.849515
[rank 1, worker 38] busy ratio: 0.859223
[rank 0, worker 39] busy ratio: 0.874696
[rank 0, worker 40] busy ratio: 0.845874
[rank 0, worker 41] busy ratio: 0.856448
[rank 3, worker 52] busy ratio: 0.886999
[rank 3, worker 53] busy ratio: 0.857837
[rank 3, worker 54] busy ratio: 0.849332
[rank 1, worker 39] busy ratio: 0.841212
[rank 1, worker 40] busy ratio: 0.850547
[rank 2, worker 0] busy ratio: 0.992727
[rank 2, worker 1] busy ratio: 0.918591
[rank 2, worker 2] busy ratio: 0.929526
[rank 2, worker 3] busy ratio: 0.922330
[rank 2, worker 4] busy ratio: 0.878345
[rank 2, worker 5] busy ratio: 0.885784
[rank 2, worker 6] busy ratio: 0.871515
[rank 2, worker 7] busy ratio: 0.928398
[rank 2, worker 8] busy ratio: 0.925881
[rank 2, worker 9] busy ratio: 0.930825
[rank 0, worker 42] busy ratio: 0.830097
[rank 0, worker 43] busy ratio: 0.858010
[rank 3, worker 55] busy ratio: 0.812652
[rank 1, worker 41] busy ratio: 0.841019
[rank 1, worker 42] busy ratio: 0.843066
[rank 0, worker 44] busy ratio: 0.860437
[rank 0, worker 45] busy ratio: 0.833333
[rank 1, worker 43] busy ratio: 0.856622
[rank 1, worker 44] busy ratio: 0.838200
[rank 1, worker 45] busy ratio: 0.860437
[rank 1, worker 46] busy ratio: 0.854369
[rank 1, worker 47] busy ratio: 0.829684
[rank 1, worker 48] busy ratio: 0.864078
[rank 1, worker 49] busy ratio: 0.826245
[rank 0, worker 46] busy ratio: 0.857837
[rank 0, worker 47] busy ratio: 0.862697
[rank 1, worker 50] busy ratio: 0.867879
[rank 1, worker 51] busy ratio: 0.840633
[rank 1, worker 52] busy ratio: 0.856622
[rank 0, worker 48] busy ratio: 0.842041
[rank 0, worker 49] busy ratio: 0.876063
[rank 0, worker 50] busy ratio: 0.828883
[rank 0, worker 51] busy ratio: 0.861650
[rank 0, worker 52] busy ratio: 0.856796
[rank 1, worker 53] busy ratio: 0.827461
[rank 1, worker 54] busy ratio: 0.819951
[rank 2, worker 10] busy ratio: 0.878493
[rank 2, worker 11] busy ratio: 0.862530
[rank 2, worker 12] busy ratio: 0.865128
[rank 2, worker 13] busy ratio: 0.881068
[rank 2, worker 14] busy ratio: 0.924939
[rank 2, worker 15] busy ratio: 0.922236
[rank 2, worker 16] busy ratio: 0.925881
[rank 2, worker 17] busy ratio: 0.928485
[rank 2, worker 18] busy ratio: 0.861650
[rank 2, worker 19] busy ratio: 0.866505
[rank 2, worker 20] busy ratio: 0.869091
[rank 2, worker 21] busy ratio: 0.924574
[rank 2, worker 22] busy ratio: 0.916262
[rank 2, worker 23] busy ratio: 0.921212
[rank 2, worker 24] busy ratio: 0.867558
[rank 2, worker 25] busy ratio: 0.877576
[rank 2, worker 26] busy ratio: 0.866343
[rank 2, worker 27] busy ratio: 0.883354
[rank 2, worker 28] busy ratio: 0.834550
[rank 2, worker 29] busy ratio: 0.814095
[rank 2, worker 30] busy ratio: 0.832524
[rank 2, worker 31] busy ratio: 0.829684
[rank 2, worker 32] busy ratio: 0.855407
[rank 2, worker 33] busy ratio: 0.834751
[rank 0, worker 53] busy ratio: 0.843256
[rank 0, worker 54] busy ratio: 0.846715
[rank 0, worker 55] busy ratio: 0.781973
[rank 1, worker 55] busy ratio: 0.754557
[rank 2, worker 34] busy ratio: 0.852977
[rank 2, worker 35] busy ratio: 0.829891
[rank 2, worker 36] busy ratio: 0.843066
[rank 2, worker 37] busy ratio: 0.845874
[rank 2, worker 38] busy ratio: 0.836983
[rank 2, worker 39] busy ratio: 0.847087
[rank 2, worker 40] busy ratio: 0.808019
[rank 2, worker 41] busy ratio: 0.854369
[rank 2, worker 42] busy ratio: 0.801944
[rank 2, worker 43] busy ratio: 0.827461
[rank 2, worker 44] busy ratio: 0.863581
[rank 2, worker 45] busy ratio: 0.810680
[rank 2, worker 46] busy ratio: 0.822600
[rank 2, worker 47] busy ratio: 0.831311
[rank 2, worker 48] busy ratio: 0.813869
[rank 2, worker 49] busy ratio: 0.849332
[rank 2, worker 50] busy ratio: 0.788835
[rank 2, worker 51] busy ratio: 0.854192
[rank 2, worker 52] busy ratio: 0.835966
[rank 2, worker 53] busy ratio: 0.804612
[rank 2, worker 54] busy ratio: 0.843256
[rank 2, worker 55] busy ratio: 0.763990
Loop time of 8.24405 on 224 procs for 100 steps with 6912000 atoms

Performance: 5240.140 tau/day, 12.130 timesteps/s
4834.8% CPU use with 4 MPI tasks x 56 OpenMP threads

MPI task timing breakdown:
Section |  min time  |  avg time  |  max time  |%varavg| %total
---------------------------------------------------------------
Pair    | 5.4822     | 5.5679     | 5.6447     |   2.8 | 67.54
Neigh   | 0.76775    | 0.78288    | 0.80323    |   1.6 |  9.50
Comm    | 0.94483    | 1.0011     | 1.0365     |   3.8 | 12.14
Output  | 0.00038357 | 0.012382   | 0.019023   |   6.4 |  0.15
Modify  | 0.2713     | 0.32419    | 0.35314    |   5.6 |  3.93
Other   |            | 0.5556     |            |       |  6.74

Nlocal:    1.728e+06 ave 1.72823e+06 max 1.72772e+06 min
Histogram: 1 0 0 0 0 1 1 0 0 1
Nghost:    260645 ave 260881 max 260518 min
Histogram: 1 1 1 0 0 0 0 0 0 1
Neighs:    0 ave 0 max 0 min
Histogram: 4 0 0 0 0 0 0 0 0 0
FullNghs:  1.2979e+08 ave 1.29814e+08 max 1.29771e+08 min
Histogram: 1 0 1 0 0 1 0 0 0 1

Total # of neighbors = 519161500
Ave neighs/atom = 75.1102
Neighbor list builds = 5
Dangerous builds not checked
Total wall time: 0:00:13
