LAMMPS (7 Aug 2019)
KOKKOS mode is enabled (../kokkos.cpp:85)
  will use up to 0 GPU(s) per node
  using 56 OpenMP thread(s) per MPI task
Lattice spacing in x,y,z = 1.6796 1.6796 1.6796
Created orthogonal box = (0 0 0) to (67.1838 67.1838 67.1838)
  1 by 2 by 2 MPI processor grid
Created 256000 atoms
  create_atoms CPU = 0.281569 secs
Neighbor list info ...
  update every 20 steps, delay 0 steps, check no
  max neighbors/atom: 2000, page size: 100000
  master list distance cutoff = 2.8
  ghost atom cutoff = 2.8
  binsize = 1.4, bins = 48 48 48
  1 neighbor lists, perpetual/occasional/extra = 1 0 0
  (1) pair lj/cut/kk, perpetual
      attributes: full, newton off, kokkos_device
      pair build: full/bin/kk/device
      stencil: full/bin/3d
      bin: kk/device
Setting up Verlet run ...
  Unit style    : lj
  Current step  : 0
  Time step     : 0.005
Per MPI rank memory allocation (min/avg/max) = 196.2 | 196.2 | 196.2 Mbytes
Step Temp E_pair E_mol TotEng Press 
       0         1.44   -6.7733681            0   -4.6133765    -5.019674 
     100   0.75865617   -5.7603259            0   -4.6223461   0.19586104 
[rank 0, worker 0] busy ratio: 0.911765
[rank 0, worker 1] busy ratio: 0.806691
[rank 0, worker 2] busy ratio: 0.805243
[rank 0, worker 3] busy ratio: 0.802239
[rank 0, worker 4] busy ratio: 0.814815
[rank 1, worker 0] busy ratio: 0.955224
[rank 1, worker 1] busy ratio: 0.806691
[rank 1, worker 2] busy ratio: 0.809701
[rank 1, worker 3] busy ratio: 0.807407
[rank 1, worker 4] busy ratio: 0.802974
[rank 1, worker 5] busy ratio: 0.799257
[rank 1, worker 6] busy ratio: 0.796296
[rank 1, worker 7] busy ratio: 0.814815
[rank 1, worker 8] busy ratio: 0.810409
[rank 1, worker 9] busy ratio: 0.800738
[rank 1, worker 10] busy ratio: 0.798507
[rank 1, worker 11] busy ratio: 0.795539
[rank 0, worker 5] busy ratio: 0.803704
[rank 0, worker 6] busy ratio: 0.802974
[rank 0, worker 7] busy ratio: 0.806691
[rank 0, worker 8] busy ratio: 0.810409
[rank 0, worker 9] busy ratio: 0.809701
[rank 0, worker 10] busy ratio: 0.809701
[rank 1, worker 12] busy ratio: 0.796296
[rank 1, worker 13] busy ratio: 0.795539
[rank 1, worker 14] busy ratio: 0.811111
[rank 1, worker 15] busy ratio: 0.811808
[rank 1, worker 16] busy ratio: 0.809701
[rank 1, worker 17] busy ratio: 0.800000
[rank 1, worker 18] busy ratio: 0.792593
[rank 1, worker 19] busy ratio: 0.791822
[rank 1, worker 20] busy ratio: 0.788889
[rank 1, worker 21] busy ratio: 0.811111
[rank 1, worker 22] busy ratio: 0.808118
[rank 1, worker 23] busy ratio: 0.807407
[rank 1, worker 24] busy ratio: 0.791822
[rank 1, worker 25] busy ratio: 0.788889
[rank 1, worker 26] busy ratio: 0.788889
[rank 1, worker 27] busy ratio: 0.788889
[rank 1, worker 28] busy ratio: 0.788889
[rank 1, worker 29] busy ratio: 0.788889
[rank 1, worker 30] busy ratio: 0.788889
[rank 1, worker 31] busy ratio: 0.784387
[rank 1, worker 32] busy ratio: 0.791822
[rank 1, worker 33] busy ratio: 0.791822
[rank 0, worker 11] busy ratio: 0.817164
[rank 0, worker 12] busy ratio: 0.805970
[rank 1, worker 34] busy ratio: 0.792593
[rank 1, worker 35] busy ratio: 0.788889
[rank 1, worker 36] busy ratio: 0.788104
[rank 1, worker 37] busy ratio: 0.788104
[rank 0, worker 13] busy ratio: 0.805970
[rank 0, worker 14] busy ratio: 0.806691
[rank 0, worker 15] busy ratio: 0.810409
[rank 1, worker 38] busy ratio: 0.789668
[rank 1, worker 39] busy ratio: 0.788889
[rank 1, worker 40] busy ratio: 0.789668
[rank 0, worker 16] busy ratio: 0.807407
[rank 0, worker 17] busy ratio: 0.802974
[rank 1, worker 41] busy ratio: 0.788889
[rank 1, worker 42] busy ratio: 0.785185
[rank 1, worker 43] busy ratio: 0.788889
[rank 0, worker 18] busy ratio: 0.800752
[rank 0, worker 19] busy ratio: 0.805970
[rank 0, worker 20] busy ratio: 0.802239
[rank 1, worker 44] busy ratio: 0.788104
[rank 1, worker 45] busy ratio: 0.788889
[rank 1, worker 46] busy ratio: 0.788104
[rank 0, worker 21] busy ratio: 0.802974
[rank 0, worker 22] busy ratio: 0.799257
[rank 1, worker 47] busy ratio: 0.791045
[rank 1, worker 48] busy ratio: 0.787313
[rank 1, worker 49] busy ratio: 0.788104
[rank 1, worker 50] busy ratio: 0.792593
[rank 1, worker 51] busy ratio: 0.788889
[rank 1, worker 52] busy ratio: 0.789668
[rank 0, worker 23] busy ratio: 0.810409
[rank 0, worker 24] busy ratio: 0.798507
[rank 0, worker 25] busy ratio: 0.799257
[rank 1, worker 53] busy ratio: 0.787313
[rank 1, worker 54] busy ratio: 0.789668
[rank 1, worker 55] busy ratio: 0.785978
[rank 0, worker 26] busy ratio: 0.800738
[rank 0, worker 27] busy ratio: 0.802974
[rank 0, worker 28] busy ratio: 0.821561
[rank 0, worker 29] busy ratio: 0.812734
[rank 0, worker 30] busy ratio: 0.807407
[rank 0, worker 31] busy ratio: 0.814126
[rank 0, worker 32] busy ratio: 0.805970
[rank 0, worker 33] busy ratio: 0.802239
[rank 0, worker 34] busy ratio: 0.807407
[rank 0, worker 35] busy ratio: 0.806691
[rank 0, worker 36] busy ratio: 0.806691
[rank 0, worker 37] busy ratio: 0.813433
[rank 0, worker 38] busy ratio: 0.810409
[rank 0, worker 39] busy ratio: 0.813433
[rank 0, worker 40] busy ratio: 0.805970
[rank 0, worker 41] busy ratio: 0.809701
[rank 0, worker 42] busy ratio: 0.807407
[rank 0, worker 43] busy ratio: 0.810409
[rank 0, worker 44] busy ratio: 0.809701
[rank 0, worker 45] busy ratio: 0.813433
[rank 0, worker 46] busy ratio: 0.814126
[rank 0, worker 47] busy ratio: 0.805243
[rank 2, worker 0] busy ratio: 0.948148
[rank 2, worker 1] busy ratio: 0.812734
[rank 2, worker 2] busy ratio: 0.817844
[rank 2, worker 3] busy ratio: 0.821561
[rank 2, worker 4] busy ratio: 0.806691
[rank 2, worker 5] busy ratio: 0.805970
[rank 2, worker 6] busy ratio: 0.802974
[rank 2, worker 7] busy ratio: 0.820896
[rank 2, worker 8] busy ratio: 0.818519
[rank 2, worker 9] busy ratio: 0.814815
[rank 2, worker 10] busy ratio: 0.802974
[rank 2, worker 11] busy ratio: 0.800000
[rank 2, worker 12] busy ratio: 0.803704
[rank 2, worker 13] busy ratio: 0.799257
[rank 2, worker 14] busy ratio: 0.814126
[rank 2, worker 15] busy ratio: 0.821561
[rank 3, worker 0] busy ratio: 0.948148
[rank 3, worker 1] busy ratio: 0.828358
[rank 3, worker 2] busy ratio: 0.825279
[rank 3, worker 3] busy ratio: 0.825279
[rank 3, worker 4] busy ratio: 0.821561
[rank 3, worker 5] busy ratio: 0.810409
[rank 3, worker 6] busy ratio: 0.814126
[rank 3, worker 7] busy ratio: 0.825279
[rank 3, worker 8] busy ratio: 0.833948
[rank 3, worker 9] busy ratio: 0.831461
[rank 3, worker 10] busy ratio: 0.814126
[rank 3, worker 11] busy ratio: 0.814126
[rank 3, worker 12] busy ratio: 0.811111
[rank 3, worker 13] busy ratio: 0.812734
[rank 3, worker 14] busy ratio: 0.832714
[rank 3, worker 15] busy ratio: 0.832714
[rank 3, worker 16] busy ratio: 0.820896
[rank 3, worker 17] busy ratio: 0.825926
[rank 3, worker 18] busy ratio: 0.811111
[rank 3, worker 19] busy ratio: 0.810409
[rank 3, worker 20] busy ratio: 0.807407
[rank 3, worker 21] busy ratio: 0.825279
[rank 3, worker 22] busy ratio: 0.828996
[rank 3, worker 23] busy ratio: 0.825279
[rank 3, worker 24] busy ratio: 0.810409
[rank 3, worker 25] busy ratio: 0.806691
[rank 3, worker 26] busy ratio: 0.806691
[rank 3, worker 27] busy ratio: 0.806691
[rank 3, worker 28] busy ratio: 0.811111
[rank 3, worker 29] busy ratio: 0.802974
[rank 3, worker 30] busy ratio: 0.802974
[rank 3, worker 31] busy ratio: 0.800000
[rank 3, worker 32] busy ratio: 0.806691
[rank 3, worker 33] busy ratio: 0.802974
[rank 3, worker 34] busy ratio: 0.806691
[rank 3, worker 35] busy ratio: 0.802974
[rank 3, worker 36] busy ratio: 0.802974
[rank 3, worker 37] busy ratio: 0.804428
[rank 3, worker 38] busy ratio: 0.807407
[rank 3, worker 39] busy ratio: 0.806691
[rank 3, worker 40] busy ratio: 0.803704
[rank 3, worker 41] busy ratio: 0.805970
[rank 3, worker 42] busy ratio: 0.807407
[rank 3, worker 43] busy ratio: 0.799257
[rank 3, worker 44] busy ratio: 0.802974
[rank 3, worker 45] busy ratio: 0.800000
[rank 3, worker 46] busy ratio: 0.802974
[rank 0, worker 48] busy ratio: 0.806691
[rank 0, worker 49] busy ratio: 0.807407
[rank 2, worker 16] busy ratio: 0.809701
[rank 2, worker 17] busy ratio: 0.814126
[rank 2, worker 18] busy ratio: 0.799257
[rank 2, worker 19] busy ratio: 0.800000
[rank 2, worker 20] busy ratio: 0.799257
[rank 2, worker 21] busy ratio: 0.814815
[rank 2, worker 22] busy ratio: 0.811808
[rank 2, worker 23] busy ratio: 0.814126
[rank 2, worker 24] busy ratio: 0.799257
[rank 2, worker 25] busy ratio: 0.797048
[rank 2, worker 26] busy ratio: 0.796296
[rank 2, worker 27] busy ratio: 0.797048
[rank 2, worker 28] busy ratio: 0.800738
[rank 2, worker 29] busy ratio: 0.796296
[rank 2, worker 30] busy ratio: 0.792593
[rank 2, worker 31] busy ratio: 0.796296
[rank 2, worker 32] busy ratio: 0.794776
[rank 2, worker 33] busy ratio: 0.799257
[rank 2, worker 34] busy ratio: 0.796296
[rank 2, worker 35] busy ratio: 0.797048
[rank 2, worker 36] busy ratio: 0.792593
[rank 2, worker 37] busy ratio: 0.794776
[rank 2, worker 38] busy ratio: 0.794007
[rank 3, worker 47] busy ratio: 0.810409
[rank 3, worker 48] busy ratio: 0.806691
[rank 3, worker 49] busy ratio: 0.802974
[rank 3, worker 50] busy ratio: 0.800000
[rank 3, worker 51] busy ratio: 0.809701
[rank 3, worker 52] busy ratio: 0.803704
[rank 3, worker 53] busy ratio: 0.803704
[rank 3, worker 54] busy ratio: 0.802974
[rank 3, worker 55] busy ratio: 0.806691
[rank 0, worker 50] busy ratio: 0.813433
[rank 0, worker 51] busy ratio: 0.810409
[rank 0, worker 52] busy ratio: 0.805243
[rank 2, worker 39] busy ratio: 0.795539
[rank 2, worker 40] busy ratio: 0.800000
[rank 2, worker 41] busy ratio: 0.792593
[rank 2, worker 42] busy ratio: 0.791045
[rank 0, worker 53] busy ratio: 0.805970
[rank 0, worker 54] busy ratio: 0.811111
[rank 0, worker 55] busy ratio: 0.810409
[rank 2, worker 43] busy ratio: 0.792593
[rank 2, worker 44] busy ratio: 0.792593
[rank 2, worker 45] busy ratio: 0.792593
Loop time of 2.70892 on 224 procs for 100 steps with 256000 atoms

[rank 2, worker 46] busy ratio: 0.795539
[rank 2, worker 47] busy ratio: 0.792593
[rank 2, worker 48] busy ratio: 0.796296
Performance: 15947.325 tau/day, 36.915 timesteps/s
[rank 2, worker 49] busy ratio: 0.792593
[rank 2, worker 50] busy ratio: 0.795539
[rank 2, worker 51] busy ratio: 0.791822
4408.8% CPU use with 4 MPI tasks x 56 OpenMP threads
[rank 2, worker 52] busy ratio: 0.792593
[rank 2, worker 53] busy ratio: 0.791045
[rank 2, worker 54] busy ratio: 0.793358
[rank 2, worker 55] busy ratio: 0.800738

MPI task timing breakdown:
Section |  min time  |  avg time  |  max time  |%varavg| %total
---------------------------------------------------------------
Pair    | 0.12671    | 0.13575    | 0.15815    |   3.5 |  5.01
Neigh   | 0.039546   | 0.042552   | 0.047523   |   1.5 |  1.57
Comm    | 1.7862     | 1.9329     | 2.0359     |   6.8 | 71.35
Output  | 7.5289e-05 | 0.00066112 | 0.0013728  |   0.0 |  0.02
Modify  | 0.0067179  | 0.0079187  | 0.0091205  |   1.0 |  0.29
Other   |            | 0.5891     |            |       | 21.75

Nlocal:    64000 ave 64093 max 63904 min
Histogram: 1 0 0 0 1 1 0 0 0 1
Nghost:    31651.5 ave 31741 max 31553 min
Histogram: 1 0 0 0 0 2 0 0 0 1
Neighs:    0 ave 0 max 0 min
Histogram: 4 0 0 0 0 0 0 0 0 0
FullNghs:  4.80697e+06 ave 4.81695e+06 max 4.79721e+06 min
Histogram: 1 0 0 0 2 0 0 0 0 1

Total # of neighbors = 19227874
Ave neighs/atom = 75.1089
Neighbor list builds = 5
Dangerous builds not checked
Total wall time: 0:00:03
