LAMMPS (7 Aug 2019)
KOKKOS mode is enabled (../kokkos.cpp:85)
  will use up to 0 GPU(s) per node
  using 56 OpenMP thread(s) per MPI task
Lattice spacing in x,y,z = 1.6796 1.6796 1.6796
Created orthogonal box = (0 0 0) to (268.735 268.735 268.735)
  1 by 2 by 2 MPI processor grid
Created 16384000 atoms
  create_atoms CPU = 6.70975 secs
Neighbor list info ...
  update every 20 steps, delay 0 steps, check no
  max neighbors/atom: 2000, page size: 100000
  master list distance cutoff = 2.8
  ghost atom cutoff = 2.8
  binsize = 1.4, bins = 192 192 192
  1 neighbor lists, perpetual/occasional/extra = 1 0 0
  (1) pair lj/cut/kk, perpetual
      attributes: full, newton off, kokkos_device
      pair build: full/bin/kk/device
      stencil: full/bin/3d
      bin: kk/device
Setting up Verlet run ...
  Unit style    : lj
  Current step  : 0
  Time step     : 0.005
Per MPI rank memory allocation (min/avg/max) = 8306 | 8306 | 8306 Mbytes
Step Temp E_pair E_mol TotEng Press 
       0         1.44   -6.7733681            0   -4.6133682   -5.0196693 
     100   0.75918554   -5.7610896            0   -4.6223114   0.19195085 
[rank 3, worker 0] busy ratio: 0.968263
[rank 3, worker 1] busy ratio: 0.863662
[rank 3, worker 2] busy ratio: 0.858018
[rank 3, worker 3] busy ratio: 0.864294
[rank 3, worker 4] busy ratio: 0.854283
[rank 3, worker 5] busy ratio: 0.842515
[rank 3, worker 6] busy ratio: 0.845854
[rank 3, worker 7] busy ratio: 0.861992
[rank 3, worker 8] busy ratio: 0.856984
[rank 0, worker 0] busy ratio: 0.978321
[rank 0, worker 1] busy ratio: 0.828317
[rank 0, worker 2] busy ratio: 0.831198
[rank 0, worker 3] busy ratio: 0.839644
[rank 1, worker 0] busy ratio: 0.958287
[rank 1, worker 1] busy ratio: 0.875139
[rank 1, worker 2] busy ratio: 0.872910
[rank 1, worker 3] busy ratio: 0.868524
[rank 1, worker 4] busy ratio: 0.852203
[rank 1, worker 5] busy ratio: 0.847826
[rank 1, worker 6] busy ratio: 0.849025
[rank 1, worker 7] busy ratio: 0.869710
[rank 1, worker 8] busy ratio: 0.872981
[rank 0, worker 4] busy ratio: 0.837507
[rank 0, worker 5] busy ratio: 0.841314
[rank 0, worker 6] busy ratio: 0.840757
[rank 0, worker 7] busy ratio: 0.843072
[rank 0, worker 8] busy ratio: 0.834725
[rank 3, worker 9] busy ratio: 0.863257
[rank 3, worker 10] busy ratio: 0.842428
[rank 3, worker 11] busy ratio: 0.845212
[rank 3, worker 12] busy ratio: 0.850223
[rank 3, worker 13] busy ratio: 0.847524
[rank 3, worker 14] busy ratio: 0.862069
[rank 3, worker 15] busy ratio: 0.849750
[rank 3, worker 16] busy ratio: 0.861436
[rank 3, worker 17] busy ratio: 0.855395
[rank 3, worker 18] busy ratio: 0.843541
[rank 3, worker 19] busy ratio: 0.850863
[rank 3, worker 20] busy ratio: 0.836394
[rank 3, worker 21] busy ratio: 0.858018
[rank 3, worker 22] busy ratio: 0.857382
[rank 3, worker 23] busy ratio: 0.861436
[rank 3, worker 24] busy ratio: 0.840757
[rank 3, worker 25] busy ratio: 0.846325
[rank 3, worker 26] busy ratio: 0.844098
[rank 3, worker 27] busy ratio: 0.840200
[rank 3, worker 28] busy ratio: 0.825362
[rank 3, worker 29] busy ratio: 0.816361
[rank 3, worker 30] busy ratio: 0.825530
[rank 3, worker 31] busy ratio: 0.810134
[rank 3, worker 32] busy ratio: 0.826934
[rank 3, worker 33] busy ratio: 0.824053
[rank 0, worker 9] busy ratio: 0.840757
[rank 0, worker 10] busy ratio: 0.828969
[rank 3, worker 34] busy ratio: 0.830829
[rank 3, worker 35] busy ratio: 0.811699
[rank 0, worker 11] busy ratio: 0.840846
[rank 0, worker 12] busy ratio: 0.841491
[rank 0, worker 13] busy ratio: 0.837416
[rank 3, worker 36] busy ratio: 0.814031
[rank 3, worker 37] busy ratio: 0.823038
[rank 0, worker 14] busy ratio: 0.829160
[rank 0, worker 15] busy ratio: 0.843628
[rank 1, worker 9] busy ratio: 0.871795
[rank 1, worker 10] busy ratio: 0.846240
[rank 1, worker 11] busy ratio: 0.836120
[rank 1, worker 12] busy ratio: 0.854677
[rank 1, worker 13] busy ratio: 0.846240
[rank 1, worker 14] busy ratio: 0.871237
[rank 1, worker 15] busy ratio: 0.874095
[rank 1, worker 16] busy ratio: 0.875209
[rank 1, worker 17] busy ratio: 0.875209
[rank 1, worker 18] busy ratio: 0.850139
[rank 1, worker 19] busy ratio: 0.857860
[rank 1, worker 20] busy ratio: 0.854992
[rank 1, worker 21] busy ratio: 0.879666
[rank 1, worker 22] busy ratio: 0.874165
[rank 1, worker 23] busy ratio: 0.875278
[rank 1, worker 24] busy ratio: 0.849582
[rank 1, worker 25] busy ratio: 0.851645
[rank 1, worker 26] busy ratio: 0.860167
[rank 1, worker 27] busy ratio: 0.847996
[rank 1, worker 28] busy ratio: 0.779387
[rank 1, worker 29] busy ratio: 0.771588
[rank 1, worker 30] busy ratio: 0.782609
[rank 1, worker 31] busy ratio: 0.771158
[rank 1, worker 32] busy ratio: 0.773133
[rank 3, worker 38] busy ratio: 0.824053
[rank 3, worker 39] busy ratio: 0.829716
[rank 3, worker 40] busy ratio: 0.828508
[rank 0, worker 16] busy ratio: 0.838063
[rank 0, worker 17] busy ratio: 0.833612
[rank 0, worker 18] busy ratio: 0.838530
[rank 1, worker 33] busy ratio: 0.779633
[rank 1, worker 34] busy ratio: 0.772702
[rank 3, worker 41] busy ratio: 0.820256
[rank 3, worker 42] busy ratio: 0.806236
[rank 0, worker 19] busy ratio: 0.832405
[rank 0, worker 20] busy ratio: 0.829065
[rank 1, worker 35] busy ratio: 0.768503
[rank 1, worker 36] busy ratio: 0.771460
[rank 3, worker 43] busy ratio: 0.818587
[rank 3, worker 44] busy ratio: 0.818030
[rank 3, worker 45] busy ratio: 0.815248
[rank 3, worker 46] busy ratio: 0.820713
[rank 3, worker 47] busy ratio: 0.814588
[rank 0, worker 21] busy ratio: 0.840289
[rank 0, worker 22] busy ratio: 0.830641
[rank 0, worker 23] busy ratio: 0.837416
[rank 2, worker 0] busy ratio: 0.961603
[rank 2, worker 1] busy ratio: 0.863358
[rank 2, worker 2] busy ratio: 0.868524
[rank 2, worker 3] busy ratio: 0.868524
[rank 2, worker 4] busy ratio: 0.852285
[rank 2, worker 5] busy ratio: 0.848468
[rank 2, worker 6] busy ratio: 0.854120
[rank 2, worker 7] busy ratio: 0.865256
[rank 2, worker 8] busy ratio: 0.863029
[rank 2, worker 9] busy ratio: 0.869081
[rank 1, worker 37] busy ratio: 0.775737
[rank 1, worker 38] busy ratio: 0.772702
[rank 3, worker 48] busy ratio: 0.825724
[rank 3, worker 49] busy ratio: 0.822284
[rank 3, worker 50] busy ratio: 0.831849
[rank 0, worker 24] busy ratio: 0.836950
[rank 0, worker 25] busy ratio: 0.846240
[rank 1, worker 39] busy ratio: 0.784281
[rank 1, worker 40] busy ratio: 0.783287
[rank 3, worker 51] busy ratio: 0.824151
[rank 3, worker 52] busy ratio: 0.829621
[rank 0, worker 26] busy ratio: 0.829065
[rank 0, worker 27] busy ratio: 0.834076
[rank 1, worker 41] busy ratio: 0.777035
[rank 1, worker 42] busy ratio: 0.759465
[rank 1, worker 43] busy ratio: 0.781058
[rank 1, worker 44] busy ratio: 0.770173
[rank 1, worker 45] busy ratio: 0.786072
[rank 3, worker 53] busy ratio: 0.818486
[rank 3, worker 54] busy ratio: 0.823693
[rank 0, worker 28] busy ratio: 0.817168
[rank 0, worker 29] busy ratio: 0.831661
[rank 0, worker 30] busy ratio: 0.831849
[rank 1, worker 46] busy ratio: 0.769231
[rank 1, worker 47] busy ratio: 0.773690
[rank 3, worker 55] busy ratio: 0.787862
[rank 0, worker 31] busy ratio: 0.827855
[rank 0, worker 32] busy ratio: 0.823497
[rank 2, worker 10] busy ratio: 0.854039
[rank 2, worker 11] busy ratio: 0.846967
[rank 2, worker 12] busy ratio: 0.847996
[rank 2, worker 13] busy ratio: 0.854120
[rank 2, worker 14] busy ratio: 0.874165
[rank 2, worker 15] busy ratio: 0.878619
[rank 2, worker 16] busy ratio: 0.881337
[rank 2, worker 17] busy ratio: 0.870123
[rank 2, worker 18] busy ratio: 0.858417
[rank 2, worker 19] busy ratio: 0.844568
[rank 2, worker 20] busy ratio: 0.855234
[rank 2, worker 21] busy ratio: 0.870267
[rank 2, worker 22] busy ratio: 0.870752
[rank 2, worker 23] busy ratio: 0.873608
[rank 2, worker 24] busy ratio: 0.852925
[rank 2, worker 25] busy ratio: 0.853563
[rank 2, worker 26] busy ratio: 0.835838
[rank 2, worker 27] busy ratio: 0.857302
[rank 2, worker 28] busy ratio: 0.769531
[rank 2, worker 29] busy ratio: 0.765886
[rank 2, worker 30] busy ratio: 0.778149
[rank 2, worker 31] busy ratio: 0.764214
[rank 2, worker 32] busy ratio: 0.774247
[rank 2, worker 33] busy ratio: 0.783166
[rank 1, worker 48] busy ratio: 0.785515
[rank 1, worker 49] busy ratio: 0.751394
[rank 0, worker 33] busy ratio: 0.829716
[rank 0, worker 34] busy ratio: 0.824053
[rank 2, worker 34] busy ratio: 0.773006
[rank 2, worker 35] busy ratio: 0.768245
[rank 2, worker 36] busy ratio: 0.789972
[rank 1, worker 50] busy ratio: 0.759197
[rank 1, worker 51] busy ratio: 0.774373
[rank 0, worker 35] busy ratio: 0.836769
[rank 0, worker 36] busy ratio: 0.842515
[rank 0, worker 37] busy ratio: 0.819042
[rank 2, worker 37] busy ratio: 0.779699
[rank 2, worker 38] busy ratio: 0.786072
[rank 1, worker 52] busy ratio: 0.774373
[rank 1, worker 53] busy ratio: 0.773690
[rank 0, worker 38] busy ratio: 0.828412
[rank 0, worker 39] busy ratio: 0.824513
[rank 2, worker 39] busy ratio: 0.768673
[rank 2, worker 40] busy ratio: 0.762806
[rank 1, worker 54] busy ratio: 0.775487
[rank 1, worker 55] busy ratio: 0.691365
[rank 0, worker 40] busy ratio: 0.828508
[rank 0, worker 41] busy ratio: 0.829160
[rank 0, worker 42] busy ratio: 0.822940
[rank 2, worker 41] busy ratio: 0.788419
[rank 2, worker 42] busy ratio: 0.755432
[rank 0, worker 43] busy ratio: 0.820056
[rank 0, worker 44] busy ratio: 0.820056
[rank 2, worker 43] busy ratio: 0.777592
[rank 2, worker 44] busy ratio: 0.778830
[rank 0, worker 45] busy ratio: 0.797997
[rank 0, worker 46] busy ratio: 0.818030
[rank 0, worker 47] busy ratio: 0.830735
[rank 2, worker 45] busy ratio: 0.749861
[rank 2, worker 46] busy ratio: 0.774373
[rank 2, worker 47] busy ratio: 0.789532
[rank 2, worker 48] busy ratio: 0.764477
[rank 2, worker 49] busy ratio: 0.786072
[rank 2, worker 50] busy ratio: 0.777716
[rank 0, worker 48] busy ratio: 0.818384
[rank 0, worker 49] busy ratio: 0.852450
[rank 2, worker 51] busy ratio: 0.777159
[rank 2, worker 52] busy ratio: 0.772829
[rank 0, worker 50] busy ratio: 0.803900
[rank 0, worker 51] busy ratio: 0.825167
[rank 0, worker 52] busy ratio: 0.826837
[rank 2, worker 53] busy ratio: 0.778273
[rank 2, worker 54] busy ratio: 0.781616
[rank 0, worker 53] busy ratio: 0.807799
[rank 0, worker 54] busy ratio: 0.821925
[rank 2, worker 55] busy ratio: 0.724638
[rank 0, worker 55] busy ratio: 0.800223
Loop time of 17.9733 on 224 procs for 100 steps with 16384000 atoms

Performance: 2403.566 tau/day, 5.564 timesteps/s
4585.6% CPU use with 4 MPI tasks x 56 OpenMP threads

MPI task timing breakdown:
Section |  min time  |  avg time  |  max time  |%varavg| %total
---------------------------------------------------------------
Pair    | 9.4084     | 9.7769     | 10.401     |  12.0 | 54.40
Neigh   | 1.846      | 1.9163     | 1.9782     |   3.7 | 10.66
Comm    | 1.9279     | 2.6404     | 3.4211     |  40.6 | 14.69
Output  | 0.0012095  | 0.020153   | 0.041439   |  12.2 |  0.11
Modify  | 0.48097    | 0.55694    | 0.64291    |   8.0 |  3.10
Other   |            | 3.063      |            |       | 17.04

Nlocal:    4.096e+06 ave 4.09657e+06 max 4.09544e+06 min
Histogram: 1 0 0 1 0 0 1 0 0 1
Nghost:    458178 ave 458566 max 457741 min
Histogram: 1 0 0 0 1 0 0 1 0 1
Neighs:    0 ave 0 max 0 min
Histogram: 4 0 0 0 0 0 0 0 0 0
FullNghs:  3.07645e+08 ave 3.07688e+08 max 3.07588e+08 min
Histogram: 1 0 0 0 1 0 0 0 1 1

Total # of neighbors = 1230581798
Ave neighs/atom = 75.1088
Neighbor list builds = 5
Dangerous builds not checked
Total wall time: 0:00:27
