LAMMPS (7 Aug 2019)
KOKKOS mode is enabled (../kokkos.cpp:85)
  will use up to 0 GPU(s) per node
  using 56 OpenMP thread(s) per MPI task
Lattice spacing in x,y,z = 1.6796 1.6796 1.6796
Created orthogonal box = (0 0 0) to (268.735 268.735 268.735)
  1 by 2 by 2 MPI processor grid
Created 16384000 atoms
  create_atoms CPU = 6.99256 secs
Neighbor list info ...
  update every 20 steps, delay 0 steps, check no
  max neighbors/atom: 2000, page size: 100000
  master list distance cutoff = 2.8
  ghost atom cutoff = 2.8
  binsize = 1.4, bins = 192 192 192
  1 neighbor lists, perpetual/occasional/extra = 1 0 0
  (1) pair lj/cut/kk, perpetual
      attributes: full, newton off, kokkos_device
      pair build: full/bin/kk/device
      stencil: full/bin/3d
      bin: kk/device
Setting up Verlet run ...
  Unit style    : lj
  Current step  : 0
  Time step     : 0.005
Per MPI rank memory allocation (min/avg/max) = 8306 | 8306 | 8306 Mbytes
Step Temp E_pair E_mol TotEng Press 
       0         1.44   -6.7733681            0   -4.6133682   -5.0196693 
     100   0.75918554   -5.7610896            0   -4.6223114   0.19195085 
[rank 3, worker 0] busy ratio: 0.995624
[rank 3, worker 1] busy ratio: 0.869113
[rank 3, worker 2] busy ratio: 0.870826
[rank 3, worker 3] busy ratio: 0.873016
[rank 3, worker 4] busy ratio: 0.840088
[rank 3, worker 5] busy ratio: 0.823755
[rank 3, worker 6] busy ratio: 0.809628
[rank 3, worker 7] busy ratio: 0.878556
[rank 3, worker 8] busy ratio: 0.877395
[rank 0, worker 0] busy ratio: 0.996171
[rank 0, worker 1] busy ratio: 0.877875
[rank 0, worker 2] busy ratio: 0.871851
[rank 0, worker 3] busy ratio: 0.868090
[rank 0, worker 4] busy ratio: 0.834064
[rank 3, worker 9] busy ratio: 0.878970
[rank 3, worker 10] busy ratio: 0.822015
[rank 3, worker 11] busy ratio: 0.815545
[rank 3, worker 12] busy ratio: 0.818281
[rank 3, worker 13] busy ratio: 0.816740
[rank 3, worker 14] busy ratio: 0.879584
[rank 3, worker 15] busy ratio: 0.872469
[rank 3, worker 16] busy ratio: 0.879037
[rank 3, worker 17] busy ratio: 0.876915
[rank 3, worker 18] busy ratio: 0.816639
[rank 1, worker 0] busy ratio: 0.995071
[rank 1, worker 1] busy ratio: 0.859726
[rank 1, worker 2] busy ratio: 0.856517
[rank 1, worker 3] busy ratio: 0.864732
[rank 1, worker 4] busy ratio: 0.824849
[rank 1, worker 5] busy ratio: 0.822660
[rank 1, worker 6] busy ratio: 0.820569
[rank 1, worker 7] busy ratio: 0.868162
[rank 1, worker 8] busy ratio: 0.872538
[rank 1, worker 9] busy ratio: 0.879716
[rank 1, worker 10] busy ratio: 0.822113
[rank 1, worker 11] busy ratio: 0.817287
[rank 1, worker 12] busy ratio: 0.818182
[rank 1, worker 13] busy ratio: 0.810175
[rank 1, worker 14] busy ratio: 0.869256
[rank 1, worker 15] busy ratio: 0.877462
[rank 1, worker 16] busy ratio: 0.884026
[rank 1, worker 17] busy ratio: 0.878075
[rank 1, worker 18] busy ratio: 0.816092
[rank 3, worker 19] busy ratio: 0.818381
[rank 3, worker 20] busy ratio: 0.814450
[rank 3, worker 21] busy ratio: 0.874726
[rank 1, worker 19] busy ratio: 0.825492
[rank 1, worker 20] busy ratio: 0.818281
[rank 1, worker 21] busy ratio: 0.892779
[rank 1, worker 22] busy ratio: 0.882868
[rank 1, worker 23] busy ratio: 0.885120
[rank 1, worker 24] busy ratio: 0.817187
[rank 1, worker 25] busy ratio: 0.820667
[rank 1, worker 26] busy ratio: 0.825492
[rank 1, worker 27] busy ratio: 0.812261
[rank 1, worker 28] busy ratio: 0.720943
[rank 1, worker 29] busy ratio: 0.709041
[rank 1, worker 30] busy ratio: 0.726177
[rank 1, worker 31] busy ratio: 0.710613
[rank 1, worker 32] busy ratio: 0.722892
[rank 1, worker 33] busy ratio: 0.711549
[rank 1, worker 34] busy ratio: 0.715928
[rank 1, worker 35] busy ratio: 0.726327
[rank 1, worker 36] busy ratio: 0.701860
[rank 1, worker 37] busy ratio: 0.733443
[rank 1, worker 38] busy ratio: 0.695129
[rank 1, worker 39] busy ratio: 0.733990
[rank 1, worker 40] busy ratio: 0.729611
[rank 1, worker 41] busy ratio: 0.731400
[rank 1, worker 42] busy ratio: 0.720612
[rank 1, worker 43] busy ratio: 0.720854
[rank 1, worker 44] busy ratio: 0.708037
[rank 1, worker 45] busy ratio: 0.722101
[rank 1, worker 46] busy ratio: 0.734537
[rank 1, worker 47] busy ratio: 0.738916
[rank 1, worker 48] busy ratio: 0.741653
[rank 1, worker 49] busy ratio: 0.706944
[rank 1, worker 50] busy ratio: 0.745077
[rank 1, worker 51] busy ratio: 0.705142
[rank 1, worker 52] busy ratio: 0.725780
[rank 1, worker 53] busy ratio: 0.725533
[rank 0, worker 5] busy ratio: 0.834792
[rank 0, worker 6] busy ratio: 0.828587
[rank 0, worker 7] busy ratio: 0.871921
[rank 0, worker 8] busy ratio: 0.872538
[rank 0, worker 9] busy ratio: 0.877395
[rank 0, worker 10] busy ratio: 0.834245
[rank 0, worker 11] busy ratio: 0.830870
[rank 0, worker 12] busy ratio: 0.823014
[rank 0, worker 13] busy ratio: 0.825944
[rank 3, worker 22] busy ratio: 0.874726
[rank 3, worker 23] busy ratio: 0.869803
[rank 1, worker 54] busy ratio: 0.723439
[rank 1, worker 55] busy ratio: 0.594417
[rank 0, worker 14] busy ratio: 0.879584
[rank 0, worker 15] busy ratio: 0.880613
[rank 3, worker 24] busy ratio: 0.818829
[rank 3, worker 25] busy ratio: 0.813903
[rank 3, worker 26] busy ratio: 0.808429
[rank 0, worker 16] busy ratio: 0.880131
[rank 0, worker 17] busy ratio: 0.878009
[rank 3, worker 27] busy ratio: 0.816193
[rank 3, worker 28] busy ratio: 0.803836
[rank 0, worker 18] busy ratio: 0.829869
[rank 0, worker 19] busy ratio: 0.829228
[rank 3, worker 29] busy ratio: 0.786535
[rank 3, worker 30] busy ratio: 0.793764
[rank 0, worker 20] busy ratio: 0.830870
[rank 0, worker 21] busy ratio: 0.878489
[rank 0, worker 22] busy ratio: 0.889497
[rank 3, worker 31] busy ratio: 0.788061
[rank 3, worker 32] busy ratio: 0.791461
[rank 3, worker 33] busy ratio: 0.792556
[rank 2, worker 0] busy ratio: 0.997263
[rank 2, worker 1] busy ratio: 0.874111
[rank 2, worker 2] busy ratio: 0.876915
[rank 2, worker 3] busy ratio: 0.869328
[rank 2, worker 4] busy ratio: 0.829135
[rank 2, worker 5] busy ratio: 0.829228
[rank 2, worker 6] busy ratio: 0.828681
[rank 2, worker 7] busy ratio: 0.871921
[rank 2, worker 8] busy ratio: 0.873632
[rank 0, worker 23] busy ratio: 0.874658
[rank 0, worker 24] busy ratio: 0.834064
[rank 3, worker 34] busy ratio: 0.792670
[rank 3, worker 35] busy ratio: 0.785871
[rank 0, worker 25] busy ratio: 0.829135
[rank 0, worker 26] busy ratio: 0.826396
[rank 3, worker 36] busy ratio: 0.791143
[rank 3, worker 37] busy ratio: 0.798030
[rank 0, worker 27] busy ratio: 0.828134
[rank 0, worker 28] busy ratio: 0.732603
[rank 0, worker 29] busy ratio: 0.745345
[rank 0, worker 30] busy ratio: 0.750958
[rank 3, worker 38] busy ratio: 0.788177
[rank 3, worker 39] busy ratio: 0.795840
[rank 3, worker 40] busy ratio: 0.788725
[rank 0, worker 31] busy ratio: 0.716867
[rank 0, worker 32] busy ratio: 0.721401
[rank 3, worker 41] busy ratio: 0.793217
[rank 3, worker 42] busy ratio: 0.797808
[rank 2, worker 9] busy ratio: 0.871991
[rank 2, worker 10] busy ratio: 0.821663
[rank 2, worker 11] busy ratio: 0.819027
[rank 2, worker 12] busy ratio: 0.827133
[rank 2, worker 13] busy ratio: 0.826492
[rank 2, worker 14] busy ratio: 0.882385
[rank 2, worker 15] busy ratio: 0.874111
[rank 2, worker 16] busy ratio: 0.875205
[rank 2, worker 17] busy ratio: 0.882449
[rank 2, worker 18] busy ratio: 0.823207
[rank 2, worker 19] busy ratio: 0.821663
[rank 2, worker 20] busy ratio: 0.817834
[rank 2, worker 21] busy ratio: 0.882321
[rank 2, worker 22] busy ratio: 0.890104
[rank 2, worker 23] busy ratio: 0.869732
[rank 2, worker 24] busy ratio: 0.822210
[rank 2, worker 25] busy ratio: 0.826039
[rank 2, worker 26] busy ratio: 0.826492
[rank 2, worker 27] busy ratio: 0.828134
[rank 2, worker 28] busy ratio: 0.714207
[rank 2, worker 29] busy ratio: 0.706076
[rank 2, worker 30] busy ratio: 0.726327
[rank 2, worker 31] busy ratio: 0.698795
[rank 2, worker 32] busy ratio: 0.704048
[rank 0, worker 33] busy ratio: 0.730706
[rank 0, worker 34] busy ratio: 0.720307
[rank 3, worker 43] busy ratio: 0.789387
[rank 3, worker 44] busy ratio: 0.788177
[rank 2, worker 33] busy ratio: 0.736583
[rank 2, worker 34] busy ratio: 0.727571
[rank 0, worker 35] busy ratio: 0.714677
[rank 0, worker 36] busy ratio: 0.760810
[rank 3, worker 45] busy ratio: 0.788177
[rank 3, worker 46] busy ratio: 0.790367
[rank 2, worker 35] busy ratio: 0.707170
[rank 2, worker 36] busy ratio: 0.759168
[rank 0, worker 37] busy ratio: 0.722192
[rank 0, worker 38] busy ratio: 0.748221
[rank 3, worker 47] busy ratio: 0.791461
[rank 3, worker 48] busy ratio: 0.800219
[rank 2, worker 37] busy ratio: 0.700055
[rank 2, worker 38] busy ratio: 0.736180
[rank 0, worker 39] busy ratio: 0.725233
[rank 0, worker 40] busy ratio: 0.718117
[rank 3, worker 49] busy ratio: 0.787083
[rank 3, worker 50] busy ratio: 0.791575
[rank 3, worker 51] busy ratio: 0.790800
[rank 2, worker 39] busy ratio: 0.688731
[rank 2, worker 40] busy ratio: 0.711391
[rank 0, worker 41] busy ratio: 0.754923
[rank 0, worker 42] busy ratio: 0.714442
[rank 3, worker 52] busy ratio: 0.785441
[rank 3, worker 53] busy ratio: 0.796935
[rank 2, worker 41] busy ratio: 0.735085
[rank 2, worker 42] busy ratio: 0.694034
[rank 0, worker 43] busy ratio: 0.731801
[rank 0, worker 44] busy ratio: 0.725233
[rank 3, worker 54] busy ratio: 0.792009
[rank 3, worker 55] busy ratio: 0.728368
[rank 2, worker 43] busy ratio: 0.726477
[rank 2, worker 44] busy ratio: 0.708265
[rank 2, worker 45] busy ratio: 0.690203
[rank 2, worker 46] busy ratio: 0.707718
[rank 2, worker 47] busy ratio: 0.761357
[rank 0, worker 45] busy ratio: 0.701533
[rank 0, worker 46] busy ratio: 0.716475
[rank 2, worker 48] busy ratio: 0.692392
[rank 2, worker 49] busy ratio: 0.751094
[rank 0, worker 47] busy ratio: 0.766703
[rank 0, worker 48] busy ratio: 0.719912
[rank 0, worker 49] busy ratio: 0.756431
[rank 0, worker 50] busy ratio: 0.709748
[rank 2, worker 50] busy ratio: 0.690919
[rank 2, worker 51] busy ratio: 0.705367
[rank 0, worker 51] busy ratio: 0.721949
[rank 0, worker 52] busy ratio: 0.713191
[rank 2, worker 52] busy ratio: 0.703886
[rank 2, worker 53] busy ratio: 0.714989
[rank 0, worker 53] busy ratio: 0.725630
[rank 0, worker 54] busy ratio: 0.734537
[rank 0, worker 55] busy ratio: 0.608219
[rank 2, worker 54] busy ratio: 0.740153
[rank 2, worker 55] busy ratio: 0.583562
Loop time of 18.2859 on 224 procs for 100 steps with 16384000 atoms

Performance: 2362.476 tau/day, 5.469 timesteps/s
4400.5% CPU use with 4 MPI tasks x 56 OpenMP threads

MPI task timing breakdown:
Section |  min time  |  avg time  |  max time  |%varavg| %total
---------------------------------------------------------------
Pair    | 12.337     | 12.826     | 13.2       |   8.8 | 70.14
Neigh   | 1.8447     | 1.9326     | 2.1342     |   8.6 | 10.57
Comm    | 1.7762     | 2.0365     | 2.1798     |  10.9 | 11.14
Output  | 0.0012393  | 0.047204   | 0.081012   |  14.5 |  0.26
Modify  | 0.51078    | 0.5451     | 0.60193    |   4.9 |  2.98
Other   |            | 0.8985     |            |       |  4.91

Nlocal:    4.096e+06 ave 4.09657e+06 max 4.09544e+06 min
Histogram: 1 0 0 1 0 0 1 0 0 1
Nghost:    458178 ave 458566 max 457741 min
Histogram: 1 0 0 0 1 0 0 1 0 1
Neighs:    0 ave 0 max 0 min
Histogram: 4 0 0 0 0 0 0 0 0 0
FullNghs:  3.07645e+08 ave 3.07688e+08 max 3.07588e+08 min
Histogram: 1 0 0 0 1 0 0 0 1 1

Total # of neighbors = 1230581798
Ave neighs/atom = 75.1088
Neighbor list builds = 5
Dangerous builds not checked
Total wall time: 0:00:28
