LAMMPS (7 Aug 2019)
KOKKOS mode is enabled (../kokkos.cpp:85)
  will use up to 0 GPU(s) per node
  using 56 OpenMP thread(s) per MPI task
Lattice spacing in x,y,z = 1.6796 1.6796 1.6796
Created orthogonal box = (0 0 0) to (201.552 201.552 201.552)
  1 by 2 by 2 MPI processor grid
Created 6912000 atoms
  create_atoms CPU = 3.70449 secs
Neighbor list info ...
  update every 20 steps, delay 0 steps, check no
  max neighbors/atom: 2000, page size: 100000
  master list distance cutoff = 2.8
  ghost atom cutoff = 2.8
  binsize = 1.4, bins = 144 144 144
  1 neighbor lists, perpetual/occasional/extra = 1 0 0
  (1) pair lj/cut/kk, perpetual
      attributes: full, newton off, kokkos_device
      pair build: full/bin/kk/device
      stencil: full/bin/3d
      bin: kk/device
Setting up Verlet run ...
  Unit style    : lj
  Current step  : 0
  Time step     : 0.005
Per MPI rank memory allocation (min/avg/max) = 3650 | 3650 | 3650 Mbytes
Step Temp E_pair E_mol TotEng Press 
       0         1.44   -6.7733681            0   -4.6133684   -5.0196694 
     100   0.75929363   -5.7612508            0   -4.6223105   0.19076255 
[rank 3, worker 0] busy ratio: 0.994172
[rank 3, worker 1] busy ratio: 0.891608
[rank 3, worker 2] busy ratio: 0.885781
[rank 3, worker 3] busy ratio: 0.884615
[rank 3, worker 4] busy ratio: 0.865967
[rank 3, worker 5] busy ratio: 0.849475
[rank 3, worker 6] busy ratio: 0.848308
[rank 3, worker 7] busy ratio: 0.879673
[rank 0, worker 0] busy ratio: 0.991841
[rank 0, worker 1] busy ratio: 0.924154
[rank 0, worker 2] busy ratio: 0.926573
[rank 1, worker 0] busy ratio: 0.995333
[rank 1, worker 1] busy ratio: 0.898601
[rank 1, worker 2] busy ratio: 0.891482
[rank 1, worker 3] busy ratio: 0.899884
[rank 1, worker 4] busy ratio: 0.866978
[rank 1, worker 5] busy ratio: 0.846154
[rank 1, worker 6] busy ratio: 0.861305
[rank 1, worker 7] busy ratio: 0.898601
[rank 1, worker 8] busy ratio: 0.897555
[rank 3, worker 8] busy ratio: 0.879813
[rank 3, worker 9] busy ratio: 0.859813
[rank 3, worker 10] busy ratio: 0.857809
[rank 3, worker 11] busy ratio: 0.852975
[rank 3, worker 12] busy ratio: 0.840326
[rank 3, worker 13] busy ratio: 0.858974
[rank 3, worker 14] busy ratio: 0.880980
[rank 3, worker 15] busy ratio: 0.869464
[rank 3, worker 16] busy ratio: 0.874126
[rank 3, worker 17] busy ratio: 0.881119
[rank 0, worker 3] busy ratio: 0.930151
[rank 0, worker 4] busy ratio: 0.865811
[rank 0, worker 5] busy ratio: 0.848485
[rank 0, worker 6] busy ratio: 0.849475
[rank 0, worker 7] busy ratio: 0.925495
[rank 0, worker 8] busy ratio: 0.927655
[rank 0, worker 9] busy ratio: 0.928821
[rank 0, worker 10] busy ratio: 0.851809
[rank 0, worker 11] busy ratio: 0.835664
[rank 3, worker 18] busy ratio: 0.863636
[rank 3, worker 19] busy ratio: 0.847141
[rank 3, worker 20] busy ratio: 0.849475
[rank 0, worker 12] busy ratio: 0.841492
[rank 0, worker 13] busy ratio: 0.852975
[rank 0, worker 14] busy ratio: 0.926488
[rank 0, worker 15] busy ratio: 0.926488
[rank 1, worker 9] busy ratio: 0.904429
[rank 1, worker 10] busy ratio: 0.852975
[rank 1, worker 11] busy ratio: 0.847319
[rank 1, worker 12] busy ratio: 0.842841
[rank 1, worker 13] busy ratio: 0.857809
[rank 1, worker 14] busy ratio: 0.903263
[rank 1, worker 15] busy ratio: 0.886814
[rank 1, worker 16] busy ratio: 0.899767
[rank 1, worker 17] busy ratio: 0.878929
[rank 1, worker 18] busy ratio: 0.867442
[rank 1, worker 19] busy ratio: 0.852154
[rank 1, worker 20] busy ratio: 0.865811
[rank 1, worker 21] busy ratio: 0.901048
[rank 1, worker 22] busy ratio: 0.900932
[rank 1, worker 23] busy ratio: 0.899767
[rank 1, worker 24] busy ratio: 0.851809
[rank 1, worker 25] busy ratio: 0.849650
[rank 1, worker 26] busy ratio: 0.849825
[rank 1, worker 27] busy ratio: 0.844807
[rank 1, worker 28] busy ratio: 0.837806
[rank 1, worker 29] busy ratio: 0.799300
[rank 1, worker 30] busy ratio: 0.808858
[rank 1, worker 31] busy ratio: 0.814469
[rank 1, worker 32] busy ratio: 0.821678
[rank 3, worker 21] busy ratio: 0.876457
[rank 3, worker 22] busy ratio: 0.878646
[rank 2, worker 0] busy ratio: 0.989523
[rank 2, worker 1] busy ratio: 0.897196
[rank 2, worker 2] busy ratio: 0.902326
[rank 2, worker 3] busy ratio: 0.908033
[rank 2, worker 4] busy ratio: 0.871795
[rank 2, worker 5] busy ratio: 0.860140
[rank 2, worker 6] busy ratio: 0.853147
[rank 2, worker 7] busy ratio: 0.905704
[rank 2, worker 8] busy ratio: 0.909091
[rank 2, worker 9] busy ratio: 0.904651
[rank 2, worker 10] busy ratio: 0.850990
[rank 0, worker 16] busy ratio: 0.922987
[rank 0, worker 17] busy ratio: 0.928821
[rank 0, worker 18] busy ratio: 0.837020
[rank 0, worker 19] busy ratio: 0.847141
[rank 1, worker 33] busy ratio: 0.836830
[rank 1, worker 34] busy ratio: 0.817016
[rank 1, worker 35] busy ratio: 0.812354
[rank 3, worker 23] busy ratio: 0.876457
[rank 3, worker 24] busy ratio: 0.853147
[rank 0, worker 20] busy ratio: 0.836639
[rank 0, worker 21] busy ratio: 0.923077
[rank 0, worker 22] busy ratio: 0.926744
[rank 1, worker 36] busy ratio: 0.824009
[rank 1, worker 37] busy ratio: 0.823804
[rank 3, worker 25] busy ratio: 0.843641
[rank 3, worker 26] busy ratio: 0.851636
[rank 3, worker 27] busy ratio: 0.844988
[rank 2, worker 11] busy ratio: 0.846154
[rank 2, worker 12] busy ratio: 0.858974
[rank 2, worker 13] busy ratio: 0.854482
[rank 2, worker 14] busy ratio: 0.899884
[rank 2, worker 15] busy ratio: 0.885781
[rank 2, worker 16] busy ratio: 0.899884
[rank 2, worker 17] busy ratio: 0.896512
[rank 2, worker 18] busy ratio: 0.848308
[rank 2, worker 19] busy ratio: 0.853318
[rank 2, worker 20] busy ratio: 0.847141
[rank 2, worker 21] busy ratio: 0.895105
[rank 2, worker 22] busy ratio: 0.899884
[rank 2, worker 23] busy ratio: 0.896149
[rank 2, worker 24] busy ratio: 0.856810
[rank 2, worker 25] busy ratio: 0.855646
[rank 2, worker 26] busy ratio: 0.850816
[rank 2, worker 27] busy ratio: 0.852975
[rank 2, worker 28] busy ratio: 0.824971
[rank 2, worker 29] busy ratio: 0.807692
[rank 2, worker 30] busy ratio: 0.829837
[rank 2, worker 31] busy ratio: 0.824009
[rank 2, worker 32] busy ratio: 0.837020
[rank 2, worker 33] busy ratio: 0.837995
[rank 2, worker 34] busy ratio: 0.841492
[rank 0, worker 23] busy ratio: 0.918510
[rank 0, worker 24] busy ratio: 0.834499
[rank 0, worker 25] busy ratio: 0.842474
[rank 1, worker 38] busy ratio: 0.834112
[rank 1, worker 39] busy ratio: 0.817016
[rank 3, worker 28] busy ratio: 0.856476
[rank 3, worker 29] busy ratio: 0.822430
[rank 3, worker 30] busy ratio: 0.847319
[rank 2, worker 35] busy ratio: 0.816065
[rank 2, worker 36] busy ratio: 0.834499
[rank 2, worker 37] busy ratio: 0.845974
[rank 2, worker 38] busy ratio: 0.817016
[rank 0, worker 26] busy ratio: 0.841676
[rank 0, worker 27] busy ratio: 0.840326
[rank 0, worker 28] busy ratio: 0.821470
[rank 0, worker 29] busy ratio: 0.798133
[rank 1, worker 40] busy ratio: 0.821678
[rank 1, worker 41] busy ratio: 0.823804
[rank 3, worker 31] busy ratio: 0.855309
[rank 3, worker 32] busy ratio: 0.831972
[rank 2, worker 39] busy ratio: 0.848485
[rank 2, worker 40] busy ratio: 0.810023
[rank 0, worker 30] busy ratio: 0.815636
[rank 0, worker 31] busy ratio: 0.807692
[rank 0, worker 32] busy ratio: 0.827506
[rank 1, worker 42] busy ratio: 0.816065
[rank 1, worker 43] busy ratio: 0.824214
[rank 1, worker 44] busy ratio: 0.821470
[rank 1, worker 45] busy ratio: 0.827305
[rank 3, worker 33] busy ratio: 0.863477
[rank 3, worker 34] busy ratio: 0.857477
[rank 3, worker 35] busy ratio: 0.847319
[rank 2, worker 41] busy ratio: 0.839161
[rank 2, worker 42] busy ratio: 0.810968
[rank 0, worker 33] busy ratio: 0.813520
[rank 0, worker 34] busy ratio: 0.828471
[rank 0, worker 35] busy ratio: 0.796512
[rank 1, worker 46] busy ratio: 0.826340
[rank 1, worker 47] busy ratio: 0.804196
[rank 1, worker 48] busy ratio: 0.827506
[rank 3, worker 36] busy ratio: 0.852975
[rank 3, worker 37] busy ratio: 0.848308
[rank 2, worker 43] busy ratio: 0.827506
[rank 2, worker 44] busy ratio: 0.835664
[rank 0, worker 36] busy ratio: 0.825175
[rank 0, worker 37] busy ratio: 0.830805
[rank 0, worker 38] busy ratio: 0.809802
[rank 0, worker 39] busy ratio: 0.817970
[rank 0, worker 40] busy ratio: 0.799300
[rank 0, worker 41] busy ratio: 0.824214
[rank 0, worker 42] busy ratio: 0.785548
[rank 1, worker 49] busy ratio: 0.816803
[rank 1, worker 50] busy ratio: 0.843823
[rank 3, worker 38] busy ratio: 0.860140
[rank 3, worker 39] busy ratio: 0.840140
[rank 2, worker 45] busy ratio: 0.808858
[rank 2, worker 46] busy ratio: 0.817016
[rank 2, worker 47] busy ratio: 0.816065
[rank 2, worker 48] busy ratio: 0.809080
[rank 0, worker 43] busy ratio: 0.808858
[rank 0, worker 44] busy ratio: 0.813737
[rank 0, worker 45] busy ratio: 0.794632
[rank 0, worker 46] busy ratio: 0.796037
[rank 0, worker 47] busy ratio: 0.820722
[rank 0, worker 48] busy ratio: 0.796966
[rank 0, worker 49] busy ratio: 0.820513
[rank 0, worker 50] busy ratio: 0.783469
[rank 0, worker 51] busy ratio: 0.815851
[rank 1, worker 51] busy ratio: 0.812135
[rank 1, worker 52] busy ratio: 0.826340
[rank 3, worker 40] busy ratio: 0.851809
[rank 3, worker 41] busy ratio: 0.845974
[rank 3, worker 42] busy ratio: 0.844988
[rank 2, worker 49] busy ratio: 0.839161
[rank 2, worker 50] busy ratio: 0.792299
[rank 0, worker 52] busy ratio: 0.813520
[rank 0, worker 53] busy ratio: 0.800699
[rank 0, worker 54] busy ratio: 0.813520
[rank 0, worker 55] busy ratio: 0.758460
[rank 1, worker 53] busy ratio: 0.796966
[rank 1, worker 54] busy ratio: 0.789720
[rank 3, worker 43] busy ratio: 0.856476
[rank 3, worker 44] busy ratio: 0.837995
[rank 2, worker 51] busy ratio: 0.835075
[rank 2, worker 52] busy ratio: 0.829837
Loop time of 8.58937 on 224 procs for 100 steps with 6912000 atoms

[rank 1, worker 55] busy ratio: 0.737150
[rank 3, worker 45] busy ratio: 0.862310
[rank 3, worker 46] busy ratio: 0.855478
[rank 2, worker 53] busy ratio: 0.791618
[rank 2, worker 54] busy ratio: 0.811189
[rank 3, worker 47] busy ratio: 0.831776
[rank 3, worker 48] busy ratio: 0.864802
[rank 3, worker 49] busy ratio: 0.841307
[rank 2, worker 55] busy ratio: 0.763403
[rank 3, worker 50] busy ratio: 0.839161
[rank 3, worker 51] busy ratio: 0.850642
[rank 3, worker 52] busy ratio: 0.862150
[rank 3, worker 53] busy ratio: 0.854142
[rank 3, worker 54] busy ratio: 0.834112
[rank 3, worker 55] busy ratio: 0.773364
Performance: 5029.474 tau/day, 11.642 timesteps/s
4701.7% CPU use with 4 MPI tasks x 56 OpenMP threads

MPI task timing breakdown:
Section |  min time  |  avg time  |  max time  |%varavg| %total
---------------------------------------------------------------
Pair    | 5.4921     | 5.5869     | 5.6846     |   2.9 | 65.04
Neigh   | 0.77691    | 0.79757    | 0.84762    |   3.3 |  9.29
Comm    | 1.0239     | 1.2258     | 1.3564     |  11.1 | 14.27
Output  | 0.00039473 | 0.010995   | 0.019423   |   7.1 |  0.13
Modify  | 0.27612    | 0.38972    | 0.45934    |  11.6 |  4.54
Other   |            | 0.5784     |            |       |  6.73

Nlocal:    1.728e+06 ave 1.72823e+06 max 1.72772e+06 min
Histogram: 1 0 0 0 0 1 1 0 0 1
Nghost:    260645 ave 260881 max 260518 min
Histogram: 1 1 1 0 0 0 0 0 0 1
Neighs:    0 ave 0 max 0 min
Histogram: 4 0 0 0 0 0 0 0 0 0
FullNghs:  1.2979e+08 ave 1.29814e+08 max 1.29771e+08 min
Histogram: 1 0 1 0 0 1 0 0 0 1

Total # of neighbors = 519161500
Ave neighs/atom = 75.1102
Neighbor list builds = 5
Dangerous builds not checked
Total wall time: 0:00:13
