LAMMPS (7 Aug 2019)
KOKKOS mode is enabled (../kokkos.cpp:85)
  will use up to 0 GPU(s) per node
  using 56 OpenMP thread(s) per MPI task
Lattice spacing in x,y,z = 1.6796 1.6796 1.6796
Created orthogonal box = (0 0 0) to (201.552 201.552 201.552)
  1 by 2 by 2 MPI processor grid
Created 6912000 atoms
  create_atoms CPU = 3.45007 secs
Neighbor list info ...
  update every 20 steps, delay 0 steps, check no
  max neighbors/atom: 2000, page size: 100000
  master list distance cutoff = 2.8
  ghost atom cutoff = 2.8
  binsize = 1.4, bins = 144 144 144
  1 neighbor lists, perpetual/occasional/extra = 1 0 0
  (1) pair lj/cut/kk, perpetual
      attributes: full, newton off, kokkos_device
      pair build: full/bin/kk/device
      stencil: full/bin/3d
      bin: kk/device
Setting up Verlet run ...
  Unit style    : lj
  Current step  : 0
  Time step     : 0.005
Per MPI rank memory allocation (min/avg/max) = 3650 | 3650 | 3650 Mbytes
Step Temp E_pair E_mol TotEng Press 
       0         1.44   -6.7733681            0   -4.6133684   -5.0196694 
     100   0.75929363   -5.7612508            0   -4.6223105   0.19076255 
[rank 3, worker 0] busy ratio: 0.945824
[rank 3, worker 1] busy ratio: 0.880765
[rank 3, worker 2] busy ratio: 0.884009
[rank 3, worker 3] busy ratio: 0.878241
[rank 3, worker 4] busy ratio: 0.853439
[rank 3, worker 5] busy ratio: 0.856982
[rank 3, worker 6] busy ratio: 0.857143
[rank 3, worker 7] busy ratio: 0.874859
[rank 3, worker 8] busy ratio: 0.885135
[rank 0, worker 0] busy ratio: 0.943567
[rank 0, worker 1] busy ratio: 0.852144
[rank 0, worker 2] busy ratio: 0.862613
[rank 0, worker 3] busy ratio: 0.861330
[rank 0, worker 4] busy ratio: 0.873732
[rank 0, worker 5] busy ratio: 0.869222
[rank 0, worker 6] busy ratio: 0.864865
[rank 0, worker 7] busy ratio: 0.861486
[rank 0, worker 8] busy ratio: 0.865991
[rank 0, worker 9] busy ratio: 0.871766
[rank 0, worker 10] busy ratio: 0.862458
[rank 0, worker 11] busy ratio: 0.859076
[rank 0, worker 12] busy ratio: 0.864865
[rank 0, worker 13] busy ratio: 0.858916
[rank 0, worker 14] busy ratio: 0.862613
[rank 0, worker 15] busy ratio: 0.865991
[rank 1, worker 0] busy ratio: 0.949153
[rank 1, worker 1] busy ratio: 0.887260
[rank 1, worker 2] busy ratio: 0.886133
[rank 1, worker 3] busy ratio: 0.887133
[rank 1, worker 4] busy ratio: 0.844068
[rank 1, worker 5] busy ratio: 0.856821
[rank 1, worker 6] busy ratio: 0.855856
[rank 1, worker 7] busy ratio: 0.887387
[rank 1, worker 8] busy ratio: 0.880496
[rank 1, worker 9] busy ratio: 0.885264
[rank 1, worker 10] busy ratio: 0.849099
[rank 1, worker 11] busy ratio: 0.843645
[rank 1, worker 12] busy ratio: 0.844595
[rank 1, worker 13] busy ratio: 0.852477
[rank 1, worker 14] busy ratio: 0.881623
[rank 1, worker 15] busy ratio: 0.887260
[rank 1, worker 16] busy ratio: 0.888514
[rank 1, worker 17] busy ratio: 0.880631
[rank 1, worker 18] busy ratio: 0.850225
[rank 3, worker 9] busy ratio: 0.880631
[rank 3, worker 10] busy ratio: 0.857303
[rank 3, worker 11] busy ratio: 0.863892
[rank 3, worker 12] busy ratio: 0.858108
[rank 3, worker 13] busy ratio: 0.859234
[rank 3, worker 14] busy ratio: 0.887387
[rank 3, worker 15] busy ratio: 0.882619
[rank 3, worker 16] busy ratio: 0.880765
[rank 3, worker 17] busy ratio: 0.883878
[rank 3, worker 18] busy ratio: 0.858268
[rank 3, worker 19] busy ratio: 0.857143
[rank 3, worker 20] busy ratio: 0.864865
[rank 3, worker 21] busy ratio: 0.887260
[rank 3, worker 22] busy ratio: 0.879505
[rank 3, worker 23] busy ratio: 0.890889
[rank 3, worker 24] busy ratio: 0.850225
[rank 3, worker 25] busy ratio: 0.844595
[rank 3, worker 26] busy ratio: 0.862302
[rank 3, worker 27] busy ratio: 0.852477
[rank 3, worker 28] busy ratio: 0.835771
[rank 3, worker 29] busy ratio: 0.838964
[rank 3, worker 30] busy ratio: 0.835771
[rank 3, worker 31] busy ratio: 0.825450
[rank 3, worker 32] busy ratio: 0.853933
[rank 0, worker 16] busy ratio: 0.860360
[rank 0, worker 17] busy ratio: 0.860517
[rank 3, worker 33] busy ratio: 0.838964
[rank 3, worker 34] busy ratio: 0.844595
[rank 3, worker 35] busy ratio: 0.836895
[rank 0, worker 18] busy ratio: 0.860203
[rank 0, worker 19] busy ratio: 0.871332
[rank 1, worker 19] busy ratio: 0.852643
[rank 1, worker 20] busy ratio: 0.852477
[rank 1, worker 21] busy ratio: 0.885135
[rank 1, worker 22] busy ratio: 0.883878
[rank 1, worker 23] busy ratio: 0.885006
[rank 1, worker 24] busy ratio: 0.862613
[rank 1, worker 25] busy ratio: 0.858108
[rank 1, worker 26] busy ratio: 0.862458
[rank 1, worker 27] busy ratio: 0.860203
[rank 1, worker 28] busy ratio: 0.838020
[rank 1, worker 29] busy ratio: 0.836528
[rank 1, worker 30] busy ratio: 0.844419
[rank 1, worker 31] busy ratio: 0.836895
[rank 1, worker 32] busy ratio: 0.847191
[rank 1, worker 33] busy ratio: 0.843292
[rank 1, worker 34] busy ratio: 0.838202
[rank 1, worker 35] busy ratio: 0.835586
[rank 1, worker 36] busy ratio: 0.844595
[rank 1, worker 37] busy ratio: 0.838964
[rank 1, worker 38] busy ratio: 0.845894
[rank 1, worker 39] busy ratio: 0.843468
[rank 1, worker 40] busy ratio: 0.845547
[rank 1, worker 41] busy ratio: 0.839910
[rank 1, worker 42] busy ratio: 0.835586
[rank 1, worker 43] busy ratio: 0.849099
[rank 1, worker 44] busy ratio: 0.837655
[rank 1, worker 45] busy ratio: 0.842342
[rank 1, worker 46] busy ratio: 0.842165
[rank 1, worker 47] busy ratio: 0.842342
[rank 1, worker 48] busy ratio: 0.842342
[rank 1, worker 49] busy ratio: 0.830891
[rank 1, worker 50] busy ratio: 0.824324
[rank 1, worker 51] busy ratio: 0.834646
[rank 1, worker 52] busy ratio: 0.853768
[rank 1, worker 53] busy ratio: 0.839910
[rank 1, worker 54] busy ratio: 0.844769
[rank 1, worker 55] busy ratio: 0.784667
[rank 3, worker 36] busy ratio: 0.842520
[rank 3, worker 37] busy ratio: 0.839145
[rank 0, worker 20] busy ratio: 0.866817
[rank 0, worker 21] busy ratio: 0.855367
[rank 0, worker 22] busy ratio: 0.856018
[rank 2, worker 0] busy ratio: 0.949381
[rank 2, worker 1] busy ratio: 0.876836
[rank 2, worker 2] busy ratio: 0.887133
[rank 2, worker 3] busy ratio: 0.887387
[rank 2, worker 4] busy ratio: 0.838782
[rank 2, worker 5] busy ratio: 0.847802
[rank 2, worker 6] busy ratio: 0.843292
[rank 2, worker 7] busy ratio: 0.895152
[rank 2, worker 8] busy ratio: 0.889515
[rank 2, worker 9] busy ratio: 0.894025
[rank 3, worker 38] busy ratio: 0.859234
[rank 3, worker 39] busy ratio: 0.845894
[rank 0, worker 23] busy ratio: 0.861486
[rank 0, worker 24] busy ratio: 0.870349
[rank 3, worker 40] busy ratio: 0.852477
[rank 3, worker 41] busy ratio: 0.852477
[rank 0, worker 25] busy ratio: 0.854237
[rank 0, worker 26] busy ratio: 0.863431
[rank 0, worker 27] busy ratio: 0.852477
[rank 3, worker 42] busy ratio: 0.831081
[rank 3, worker 43] busy ratio: 0.847019
[rank 3, worker 44] busy ratio: 0.833333
[rank 3, worker 45] busy ratio: 0.846847
[rank 0, worker 28] busy ratio: 0.859887
[rank 0, worker 29] busy ratio: 0.856982
[rank 3, worker 46] busy ratio: 0.849438
[rank 0, worker 30] busy ratio: 0.866967
[rank 0, worker 31] busy ratio: 0.864713
[rank 0, worker 32] busy ratio: 0.864560
[rank 2, worker 10] busy ratio: 0.844244
[rank 2, worker 11] busy ratio: 0.830700
[rank 2, worker 12] busy ratio: 0.857948
[rank 2, worker 13] busy ratio: 0.847802
[rank 2, worker 14] busy ratio: 0.877252
[rank 2, worker 15] busy ratio: 0.889515
[rank 2, worker 16] busy ratio: 0.882619
[rank 2, worker 17] busy ratio: 0.889515
[rank 2, worker 18] busy ratio: 0.848929
[rank 2, worker 19] busy ratio: 0.845547
[rank 2, worker 20] busy ratio: 0.841395
[rank 2, worker 21] busy ratio: 0.884009
[rank 2, worker 22] busy ratio: 0.886133
[rank 2, worker 23] busy ratio: 0.887387
[rank 2, worker 24] busy ratio: 0.843468
[rank 2, worker 25] busy ratio: 0.853439
[rank 2, worker 26] busy ratio: 0.835586
[rank 2, worker 27] busy ratio: 0.843468
[rank 2, worker 28] busy ratio: 0.826577
[rank 2, worker 29] busy ratio: 0.812641
[rank 2, worker 30] busy ratio: 0.814398
[rank 2, worker 31] busy ratio: 0.815315
[rank 2, worker 32] busy ratio: 0.830891
[rank 2, worker 33] busy ratio: 0.822999
[rank 2, worker 34] busy ratio: 0.821670
[rank 2, worker 35] busy ratio: 0.809470
[rank 2, worker 36] busy ratio: 0.828829
[rank 3, worker 47] busy ratio: 0.851351
[rank 3, worker 48] busy ratio: 0.842520
[rank 0, worker 33] busy ratio: 0.863585
[rank 0, worker 34] busy ratio: 0.865017
[rank 2, worker 37] busy ratio: 0.832207
[rank 2, worker 38] busy ratio: 0.829763
[rank 3, worker 49] busy ratio: 0.848144
[rank 3, worker 50] busy ratio: 0.835771
[rank 0, worker 35] busy ratio: 0.860360
[rank 0, worker 36] busy ratio: 0.860360
[rank 0, worker 37] busy ratio: 0.861330
[rank 2, worker 39] busy ratio: 0.826577
[rank 2, worker 40] busy ratio: 0.819413
[rank 3, worker 51] busy ratio: 0.847973
[rank 3, worker 52] busy ratio: 0.847019
[rank 0, worker 38] busy ratio: 0.856821
[rank 0, worker 39] busy ratio: 0.857788
[rank 2, worker 41] busy ratio: 0.825056
[rank 2, worker 42] busy ratio: 0.819617
[rank 2, worker 43] busy ratio: 0.834273
[rank 3, worker 53] busy ratio: 0.856018
[rank 3, worker 54] busy ratio: 0.840090
[rank 0, worker 40] busy ratio: 0.858108
[rank 0, worker 41] busy ratio: 0.853439
[rank 2, worker 44] busy ratio: 0.825843
[rank 2, worker 45] busy ratio: 0.813273
[rank 2, worker 46] busy ratio: 0.819820
[rank 2, worker 47] busy ratio: 0.826185
[rank 2, worker 48] busy ratio: 0.822999
[rank 2, worker 49] busy ratio: 0.821670
[rank 3, worker 55] busy ratio: 0.780405
[rank 0, worker 42] busy ratio: 0.845547
[rank 0, worker 43] busy ratio: 0.854566
[rank 0, worker 44] busy ratio: 0.866967
[rank 2, worker 50] busy ratio: 0.833145
[rank 2, worker 51] busy ratio: 0.821147
[rank 0, worker 45] busy ratio: 0.851351
[rank 0, worker 46] busy ratio: 0.852477
[rank 2, worker 52] busy ratio: 0.825450
[rank 2, worker 53] busy ratio: 0.807215
[rank 0, worker 47] busy ratio: 0.854402
[rank 0, worker 48] busy ratio: 0.850056
[rank 2, worker 54] busy ratio: 0.817568
[rank 2, worker 55] busy ratio: 0.765502
[rank 0, worker 49] busy ratio: 0.862458
[rank 0, worker 50] busy ratio: 0.848929
[rank 0, worker 51] busy ratio: 0.865017
[rank 0, worker 52] busy ratio: 0.854893
[rank 0, worker 53] busy ratio: 0.845372
[rank 0, worker 54] busy ratio: 0.844419
[rank 0, worker 55] busy ratio: 0.828829
Loop time of 8.88948 on 224 procs for 100 steps with 6912000 atoms

Performance: 4859.678 tau/day, 11.249 timesteps/s
4728.4% CPU use with 4 MPI tasks x 56 OpenMP threads

MPI task timing breakdown:
Section |  min time  |  avg time  |  max time  |%varavg| %total
---------------------------------------------------------------
Pair    | 4.251      | 4.4182     | 4.5767     |   6.1 | 49.70
Neigh   | 0.76444    | 0.77307    | 0.78309    |   0.9 |  8.70
Comm    | 1.169      | 1.2766     | 1.4239     |   8.5 | 14.36
Output  | 0.0003329  | 0.01011    | 0.014078   |   5.6 |  0.11
Modify  | 0.23803    | 0.26635    | 0.29312    |   3.8 |  3.00
Other   |            | 2.145      |            |       | 24.13

Nlocal:    1.728e+06 ave 1.72823e+06 max 1.72772e+06 min
Histogram: 1 0 0 0 0 1 1 0 0 1
Nghost:    260645 ave 260881 max 260518 min
Histogram: 1 1 1 0 0 0 0 0 0 1
Neighs:    0 ave 0 max 0 min
Histogram: 4 0 0 0 0 0 0 0 0 0
FullNghs:  1.2979e+08 ave 1.29814e+08 max 1.29771e+08 min
Histogram: 1 0 1 0 0 1 0 0 0 1

Total # of neighbors = 519161500
Ave neighs/atom = 75.1102
Neighbor list builds = 5
Dangerous builds not checked
Total wall time: 0:00:13
