LAMMPS (7 Aug 2019)
KOKKOS mode is enabled (../kokkos.cpp:85)
  will use up to 0 GPU(s) per node
  using 56 OpenMP thread(s) per MPI task
Lattice spacing in x,y,z = 1.6796 1.6796 1.6796
Created orthogonal box = (0 0 0) to (335.919 335.919 335.919)
  1 by 2 by 2 MPI processor grid
Created 32000000 atoms
  create_atoms CPU = 10.5316 secs
Neighbor list info ...
  update every 20 steps, delay 0 steps, check no
  max neighbors/atom: 2000, page size: 100000
  master list distance cutoff = 2.8
  ghost atom cutoff = 2.8
  binsize = 1.4, bins = 240 240 240
  1 neighbor lists, perpetual/occasional/extra = 1 0 0
  (1) pair lj/cut/kk, perpetual
      attributes: full, newton off, kokkos_device
      pair build: full/bin/kk/device
      stencil: full/bin/3d
      bin: kk/device
Setting up Verlet run ...
  Unit style    : lj
  Current step  : 0
  Time step     : 0.005
Per MPI rank memory allocation (min/avg/max) = 1.584e+04 | 1.584e+04 | 1.584e+04 Mbytes
Step Temp E_pair E_mol TotEng Press 
       0         1.44   -6.7733681            0   -4.6133681   -5.0196693 
     100   0.75941602   -5.7614399            0   -4.6223159   0.19027589 
[rank 1, worker 0] busy ratio: 0.995467
[rank 1, worker 1] busy ratio: 0.827616
[rank 1, worker 2] busy ratio: 0.819881
[rank 1, worker 3] busy ratio: 0.824929
[rank 1, worker 4] busy ratio: 0.778407
[rank 1, worker 5] busy ratio: 0.766223
[rank 1, worker 6] busy ratio: 0.763240
[rank 1, worker 7] busy ratio: 0.830926
[rank 1, worker 8] busy ratio: 0.829178
[rank 0, worker 0] busy ratio: 0.994341
[rank 0, worker 1] busy ratio: 0.865930
[rank 0, worker 2] busy ratio: 0.863739
[rank 0, worker 3] busy ratio: 0.870895
[rank 3, worker 0] busy ratio: 0.996318
[rank 3, worker 1] busy ratio: 0.795861
[rank 3, worker 2] busy ratio: 0.795693
[rank 3, worker 3] busy ratio: 0.797450
[rank 3, worker 4] busy ratio: 0.769470
[rank 3, worker 5] busy ratio: 0.751558
[rank 3, worker 6] busy ratio: 0.754391
[rank 3, worker 7] busy ratio: 0.797734
[rank 3, worker 8] busy ratio: 0.804588
[rank 3, worker 9] busy ratio: 0.801246
[rank 3, worker 10] busy ratio: 0.753894
[rank 3, worker 11] busy ratio: 0.754460
[rank 3, worker 12] busy ratio: 0.756588
[rank 3, worker 13] busy ratio: 0.754813
[rank 3, worker 14] busy ratio: 0.804022
[rank 3, worker 15] busy ratio: 0.805776
[rank 1, worker 9] busy ratio: 0.823046
[rank 1, worker 10] busy ratio: 0.769688
[rank 1, worker 11] busy ratio: 0.760907
[rank 1, worker 12] busy ratio: 0.763173
[rank 1, worker 13] busy ratio: 0.764023
[rank 1, worker 14] busy ratio: 0.828143
[rank 1, worker 15] busy ratio: 0.828426
[rank 1, worker 16] busy ratio: 0.831776
[rank 1, worker 17] busy ratio: 0.825828
[rank 1, worker 18] busy ratio: 0.762390
[rank 1, worker 19] busy ratio: 0.762323
[rank 1, worker 20] busy ratio: 0.766638
[rank 1, worker 21] busy ratio: 0.831161
[rank 1, worker 22] busy ratio: 0.829510
[rank 1, worker 23] busy ratio: 0.831492
[rank 1, worker 24] busy ratio: 0.755310
[rank 1, worker 25] busy ratio: 0.765222
[rank 1, worker 26] busy ratio: 0.764589
[rank 1, worker 27] busy ratio: 0.765439
[rank 1, worker 28] busy ratio: 0.692853
[rank 1, worker 29] busy ratio: 0.675262
[rank 1, worker 30] busy ratio: 0.674221
[rank 3, worker 16] busy ratio: 0.806854
[rank 3, worker 17] busy ratio: 0.804588
[rank 3, worker 18] busy ratio: 0.754744
[rank 1, worker 31] busy ratio: 0.690935
[rank 1, worker 32] busy ratio: 0.673938
[rank 1, worker 33] busy ratio: 0.671105
[rank 3, worker 19] busy ratio: 0.745609
[rank 3, worker 20] busy ratio: 0.749008
[rank 1, worker 34] busy ratio: 0.673180
[rank 1, worker 35] busy ratio: 0.689411
[rank 0, worker 4] busy ratio: 0.785593
[rank 0, worker 5] busy ratio: 0.750850
[rank 0, worker 6] busy ratio: 0.748866
[rank 0, worker 7] busy ratio: 0.878436
[rank 0, worker 8] busy ratio: 0.876805
[rank 0, worker 9] busy ratio: 0.874540
[rank 0, worker 10] busy ratio: 0.754252
[rank 0, worker 11] busy ratio: 0.764589
[rank 3, worker 21] busy ratio: 0.809740
[rank 3, worker 22] busy ratio: 0.811385
[rank 1, worker 36] busy ratio: 0.683659
[rank 1, worker 37] busy ratio: 0.676871
[rank 0, worker 12] busy ratio: 0.735336
[rank 0, worker 13] busy ratio: 0.728535
[rank 0, worker 14] busy ratio: 0.887882
[rank 3, worker 23] busy ratio: 0.804588
[rank 3, worker 24] busy ratio: 0.744759
[rank 3, worker 25] busy ratio: 0.755027
[rank 1, worker 38] busy ratio: 0.676112
[rank 1, worker 39] busy ratio: 0.656941
[rank 0, worker 15] busy ratio: 0.888700
[rank 0, worker 16] busy ratio: 0.890652
[rank 3, worker 26] busy ratio: 0.749221
[rank 3, worker 27] busy ratio: 0.749646
[rank 1, worker 40] busy ratio: 0.660719
[rank 1, worker 41] busy ratio: 0.662985
[rank 0, worker 17] busy ratio: 0.890116
[rank 0, worker 18] busy ratio: 0.728045
[rank 3, worker 28] busy ratio: 0.740153
[rank 3, worker 29] busy ratio: 0.724929
[rank 1, worker 42] busy ratio: 0.678652
[rank 1, worker 43] busy ratio: 0.683465
[rank 1, worker 44] busy ratio: 0.675354
[rank 1, worker 45] busy ratio: 0.683942
[rank 1, worker 46] busy ratio: 0.660719
[rank 1, worker 47] busy ratio: 0.655905
[rank 0, worker 19] busy ratio: 0.722741
[rank 0, worker 20] busy ratio: 0.740940
[rank 3, worker 30] busy ratio: 0.727556
[rank 3, worker 31] busy ratio: 0.729462
[rank 1, worker 48] busy ratio: 0.662606
[rank 1, worker 49] busy ratio: 0.677995
[rank 0, worker 21] busy ratio: 0.887284
[rank 0, worker 22] busy ratio: 0.870538
[rank 3, worker 32] busy ratio: 0.714528
[rank 3, worker 33] busy ratio: 0.716228
[rank 3, worker 34] busy ratio: 0.722868
[rank 1, worker 50] busy ratio: 0.695554
[rank 1, worker 51] busy ratio: 0.697167
[rank 0, worker 23] busy ratio: 0.887284
[rank 0, worker 24] busy ratio: 0.733919
[rank 3, worker 35] busy ratio: 0.730028
[rank 3, worker 36] busy ratio: 0.729745
[rank 3, worker 37] busy ratio: 0.728535
[rank 1, worker 52] busy ratio: 0.670348
[rank 1, worker 53] busy ratio: 0.651090
[rank 0, worker 25] busy ratio: 0.719830
[rank 0, worker 26] busy ratio: 0.733786
[rank 3, worker 38] busy ratio: 0.719343
[rank 3, worker 39] busy ratio: 0.715784
[rank 2, worker 0] busy ratio: 0.995469
[rank 2, worker 1] busy ratio: 0.831537
[rank 2, worker 2] busy ratio: 0.826346
[rank 2, worker 3] busy ratio: 0.830878
[rank 2, worker 4] busy ratio: 0.778974
[rank 2, worker 5] busy ratio: 0.767640
[rank 2, worker 6] busy ratio: 0.773088
[rank 2, worker 7] busy ratio: 0.825779
[rank 1, worker 54] busy ratio: 0.656852
[rank 1, worker 55] busy ratio: 0.669785
[rank 0, worker 27] busy ratio: 0.722946
[rank 0, worker 28] busy ratio: 0.699745
[rank 0, worker 29] busy ratio: 0.681586
[rank 0, worker 30] busy ratio: 0.667516
[rank 0, worker 31] busy ratio: 0.663927
[rank 3, worker 40] busy ratio: 0.717644
[rank 3, worker 41] busy ratio: 0.720884
[rank 3, worker 42] busy ratio: 0.731216
[rank 0, worker 32] busy ratio: 0.653639
[rank 0, worker 33] busy ratio: 0.675921
[rank 3, worker 43] busy ratio: 0.727195
[rank 3, worker 44] busy ratio: 0.725135
[rank 0, worker 34] busy ratio: 0.657507
[rank 0, worker 35] busy ratio: 0.666572
[rank 3, worker 45] busy ratio: 0.720522
[rank 3, worker 46] busy ratio: 0.717564
[rank 2, worker 8] busy ratio: 0.832011
[rank 2, worker 9] busy ratio: 0.837348
[rank 2, worker 10] busy ratio: 0.773216
[rank 2, worker 11] busy ratio: 0.775354
[rank 2, worker 12] busy ratio: 0.775418
[rank 2, worker 13] busy ratio: 0.779603
[rank 2, worker 14] busy ratio: 0.839705
[rank 2, worker 15] busy ratio: 0.844281
[rank 2, worker 16] busy ratio: 0.841643
[rank 2, worker 17] busy ratio: 0.843626
[rank 2, worker 18] busy ratio: 0.773024
[rank 2, worker 19] busy ratio: 0.775637
[rank 2, worker 20] busy ratio: 0.774724
[rank 2, worker 21] busy ratio: 0.839705
[rank 2, worker 22] busy ratio: 0.844847
[rank 2, worker 23] busy ratio: 0.843387
[rank 2, worker 24] busy ratio: 0.772238
[rank 2, worker 25] busy ratio: 0.778754
[rank 2, worker 26] busy ratio: 0.773243
[rank 2, worker 27] busy ratio: 0.779666
[rank 2, worker 28] busy ratio: 0.691348
[rank 2, worker 29] busy ratio: 0.667990
[rank 2, worker 30] busy ratio: 0.653160
[rank 0, worker 36] busy ratio: 0.662040
[rank 0, worker 37] busy ratio: 0.657321
[rank 3, worker 47] busy ratio: 0.717280
[rank 3, worker 48] busy ratio: 0.718697
[rank 3, worker 49] busy ratio: 0.725212
[rank 2, worker 31] busy ratio: 0.684330
[rank 2, worker 32] busy ratio: 0.646925
[rank 0, worker 38] busy ratio: 0.645892
[rank 0, worker 39] busy ratio: 0.640691
[rank 3, worker 50] busy ratio: 0.721813
[rank 3, worker 51] busy ratio: 0.724441
[rank 2, worker 33] busy ratio: 0.685091
[rank 2, worker 34] busy ratio: 0.652408
[rank 0, worker 40] busy ratio: 0.684986
[rank 0, worker 41] busy ratio: 0.648725
[rank 3, worker 52] busy ratio: 0.713396
[rank 3, worker 53] busy ratio: 0.708900
[rank 3, worker 54] busy ratio: 0.722175
[rank 2, worker 35] busy ratio: 0.673371
[rank 2, worker 36] busy ratio: 0.671671
[rank 0, worker 42] busy ratio: 0.659020
[rank 0, worker 43] busy ratio: 0.661756
[rank 3, worker 55] busy ratio: 0.694901
[rank 2, worker 37] busy ratio: 0.653258
[rank 2, worker 38] busy ratio: 0.639558
[rank 0, worker 44] busy ratio: 0.668177
[rank 0, worker 45] busy ratio: 0.664118
[rank 2, worker 39] busy ratio: 0.650241
[rank 2, worker 40] busy ratio: 0.674320
[rank 0, worker 46] busy ratio: 0.656754
[rank 0, worker 47] busy ratio: 0.636261
[rank 0, worker 48] busy ratio: 0.646176
[rank 0, worker 49] busy ratio: 0.692068
[rank 0, worker 50] busy ratio: 0.646842
[rank 0, worker 51] busy ratio: 0.655622
[rank 0, worker 52] busy ratio: 0.645993
[rank 0, worker 53] busy ratio: 0.638346
[rank 2, worker 41] busy ratio: 0.630207
[rank 2, worker 42] busy ratio: 0.657127
[rank 2, worker 43] busy ratio: 0.686597
[rank 2, worker 44] busy ratio: 0.643909
[rank 2, worker 45] busy ratio: 0.668083
[rank 2, worker 46] busy ratio: 0.643909
[rank 2, worker 47] busy ratio: 0.644293
[rank 0, worker 54] busy ratio: 0.642877
[rank 0, worker 55] busy ratio: 0.665156
[rank 2, worker 48] busy ratio: 0.657224
[rank 2, worker 49] busy ratio: 0.679320
[rank 2, worker 50] busy ratio: 0.643444
[rank 2, worker 51] busy ratio: 0.651657
[rank 2, worker 52] busy ratio: 0.654772
[rank 2, worker 53] busy ratio: 0.665061
[rank 2, worker 54] busy ratio: 0.638063
[rank 2, worker 55] busy ratio: 0.676112
Loop time of 35.3202 on 224 procs for 100 steps with 32000000 atoms

Performance: 1223.097 tau/day, 2.831 timesteps/s
4110.2% CPU use with 4 MPI tasks x 56 OpenMP threads

MPI task timing breakdown:
Section |  min time  |  avg time  |  max time  |%varavg| %total
---------------------------------------------------------------
Pair    | 23.026     | 24.633     | 26.063     |  22.2 | 69.74
Neigh   | 3.6181     | 3.7756     | 3.8823     |   5.0 | 10.69
Comm    | 3.0602     | 4.3164     | 5.696      |  46.3 | 12.22
Output  | 0.0021399  | 0.12543    | 0.21521    |  22.1 |  0.36
Modify  | 1.0539     | 1.1238     | 1.2258     |   6.3 |  3.18
Other   |            | 1.346      |            |       |  3.81

Nlocal:    8e+06 ave 8.00017e+06 max 7.99976e+06 min
Histogram: 1 0 0 0 0 0 2 0 0 1
Nghost:    711029 ave 711274 max 710914 min
Histogram: 2 0 1 0 0 0 0 0 0 1
Neighs:    0 ave 0 max 0 min
Histogram: 4 0 0 0 0 0 0 0 0 0
FullNghs:  6.00869e+08 ave 6.00884e+08 max 6.0085e+08 min
Histogram: 1 0 0 0 0 1 1 0 0 1

Total # of neighbors = 2.40348e+09
Ave neighs/atom = 75.1087
Neighbor list builds = 5
Dangerous builds not checked
Total wall time: 0:00:50
