LAMMPS (7 Aug 2019)
KOKKOS mode is enabled (../kokkos.cpp:85)
  will use up to 0 GPU(s) per node
  using 56 OpenMP thread(s) per MPI task
Lattice spacing in x,y,z = 1.6796 1.6796 1.6796
Created orthogonal box = (0 0 0) to (403.103 403.103 403.103)
  1 by 2 by 2 MPI processor grid
Created 55296000 atoms
  create_atoms CPU = 15.2328 secs
Neighbor list info ...
  update every 20 steps, delay 0 steps, check no
  max neighbors/atom: 2000, page size: 100000
  master list distance cutoff = 2.8
  ghost atom cutoff = 2.8
  binsize = 1.4, bins = 288 288 288
  1 neighbor lists, perpetual/occasional/extra = 1 0 0
  (1) pair lj/cut/kk, perpetual
      attributes: full, newton off, kokkos_device
      pair build: full/bin/kk/device
      stencil: full/bin/3d
      bin: kk/device
Setting up Verlet run ...
  Unit style    : lj
  Current step  : 0
  Time step     : 0.005
Per MPI rank memory allocation (min/avg/max) = 2.709e+04 | 2.709e+04 | 2.709e+04 Mbytes
Step Temp E_pair E_mol TotEng Press 
       0         1.44   -6.7733681            0   -4.6133681   -5.0196693 
     100   0.75942427   -5.7614518            0   -4.6223154   0.19008332 
[rank 0, worker 0] busy ratio: 0.955831
[rank 0, worker 1] busy ratio: 0.799515
[rank 0, worker 2] busy ratio: 0.806779
[rank 0, worker 3] busy ratio: 0.811167
[rank 0, worker 4] busy ratio: 0.806476
[rank 0, worker 5] busy ratio: 0.806476
[rank 0, worker 6] busy ratio: 0.808292
[rank 0, worker 7] busy ratio: 0.801604
[rank 0, worker 8] busy ratio: 0.806022
[rank 0, worker 9] busy ratio: 0.803782
[rank 0, worker 10] busy ratio: 0.801937
[rank 0, worker 11] busy ratio: 0.808292
[rank 0, worker 12] busy ratio: 0.804358
[rank 0, worker 13] busy ratio: 0.801907
[rank 0, worker 14] busy ratio: 0.805266
[rank 0, worker 15] busy ratio: 0.803299
[rank 0, worker 16] busy ratio: 0.809805
[rank 0, worker 17] busy ratio: 0.808018
[rank 0, worker 18] busy ratio: 0.806447
[rank 0, worker 19] busy ratio: 0.804933
[rank 0, worker 20] busy ratio: 0.801150
[rank 0, worker 21] busy ratio: 0.813105
[rank 0, worker 22] busy ratio: 0.806598
[rank 0, worker 23] busy ratio: 0.803571
[rank 0, worker 24] busy ratio: 0.807686
[rank 0, worker 25] busy ratio: 0.807989
[rank 0, worker 26] busy ratio: 0.806657
[rank 0, worker 27] busy ratio: 0.809351
[rank 0, worker 28] busy ratio: 0.800363
[rank 0, worker 29] busy ratio: 0.798033
[rank 0, worker 30] busy ratio: 0.804568
[rank 0, worker 31] busy ratio: 0.808775
[rank 0, worker 32] busy ratio: 0.801240
[rank 0, worker 33] busy ratio: 0.801150
[rank 0, worker 34] busy ratio: 0.795430
[rank 0, worker 35] busy ratio: 0.799667
[rank 0, worker 36] busy ratio: 0.798911
[rank 0, worker 37] busy ratio: 0.801150
[rank 0, worker 38] busy ratio: 0.799062
[rank 0, worker 39] busy ratio: 0.801120
[rank 0, worker 40] busy ratio: 0.804177
[rank 0, worker 41] busy ratio: 0.793098
[rank 0, worker 42] busy ratio: 0.799395
[rank 0, worker 43] busy ratio: 0.787769
[rank 3, worker 0] busy ratio: 0.949145
[rank 3, worker 1] busy ratio: 0.832627
[rank 3, worker 2] busy ratio: 0.829073
[rank 3, worker 3] busy ratio: 0.822034
[rank 3, worker 4] busy ratio: 0.820396
[rank 3, worker 5] busy ratio: 0.812226
[rank 3, worker 6] busy ratio: 0.817700
[rank 3, worker 7] busy ratio: 0.826679
[rank 3, worker 8] busy ratio: 0.824686
[rank 3, worker 9] busy ratio: 0.821056
[rank 3, worker 10] busy ratio: 0.813890
[rank 3, worker 11] busy ratio: 0.813313
[rank 3, worker 12] busy ratio: 0.819516
[rank 3, worker 13] busy ratio: 0.819392
[rank 3, worker 14] busy ratio: 0.824633
[rank 3, worker 15] busy ratio: 0.825594
[rank 3, worker 16] busy ratio: 0.826074
[rank 3, worker 17] busy ratio: 0.830309
[rank 3, worker 18] busy ratio: 0.821936
[rank 3, worker 19] busy ratio: 0.821056
[rank 3, worker 20] busy ratio: 0.821358
[rank 3, worker 21] busy ratio: 0.823325
[rank 3, worker 22] busy ratio: 0.824811
[rank 3, worker 23] busy ratio: 0.828342
[rank 3, worker 24] busy ratio: 0.818911
[rank 3, worker 25] busy ratio: 0.819213
[rank 3, worker 26] busy ratio: 0.815610
[rank 3, worker 27] busy ratio: 0.818154
[rank 3, worker 28] busy ratio: 0.767857
[rank 3, worker 29] busy ratio: 0.759268
[rank 3, worker 30] busy ratio: 0.768381
[rank 3, worker 31] busy ratio: 0.750038
[rank 3, worker 32] busy ratio: 0.767741
[rank 3, worker 33] busy ratio: 0.773339
[rank 3, worker 34] busy ratio: 0.770651
[rank 3, worker 35] busy ratio: 0.777912
[rank 3, worker 36] busy ratio: 0.772047
[rank 3, worker 37] busy ratio: 0.777156
[rank 3, worker 38] busy ratio: 0.769405
[rank 3, worker 39] busy ratio: 0.774887
[rank 3, worker 40] busy ratio: 0.779728
[rank 3, worker 41] busy ratio: 0.775374
[rank 3, worker 42] busy ratio: 0.749167
[rank 3, worker 43] busy ratio: 0.782365
[rank 3, worker 44] busy ratio: 0.764563
[rank 0, worker 44] busy ratio: 0.793041
[rank 0, worker 45] busy ratio: 0.801604
[rank 3, worker 45] busy ratio: 0.767811
[rank 3, worker 46] busy ratio: 0.761573
[rank 3, worker 47] busy ratio: 0.775038
[rank 3, worker 48] busy ratio: 0.775677
[rank 3, worker 49] busy ratio: 0.776551
[rank 3, worker 50] busy ratio: 0.776770
[rank 3, worker 51] busy ratio: 0.770534
[rank 3, worker 52] busy ratio: 0.776063
[rank 3, worker 53] busy ratio: 0.772012
[rank 3, worker 54] busy ratio: 0.765507
[rank 3, worker 55] busy ratio: 0.707387
[rank 0, worker 46] busy ratio: 0.789952
[rank 0, worker 47] busy ratio: 0.791799
[rank 0, worker 48] busy ratio: 0.807384
[rank 0, worker 49] busy ratio: 0.808263
[rank 0, worker 50] busy ratio: 0.796792
[rank 1, worker 0] busy ratio: 0.919504
[rank 1, worker 1] busy ratio: 0.860039
[rank 1, worker 2] busy ratio: 0.856970
[rank 1, worker 3] busy ratio: 0.857294
[rank 1, worker 4] busy ratio: 0.804697
[rank 1, worker 5] busy ratio: 0.790948
[rank 1, worker 6] busy ratio: 0.781141
[rank 1, worker 7] busy ratio: 0.855954
[rank 1, worker 8] busy ratio: 0.860191
[rank 1, worker 9] busy ratio: 0.866828
[rank 1, worker 10] busy ratio: 0.794612
[rank 1, worker 11] busy ratio: 0.798669
[rank 1, worker 12] busy ratio: 0.802209
[rank 1, worker 13] busy ratio: 0.805719
[rank 1, worker 14] busy ratio: 0.860796
[rank 1, worker 15] busy ratio: 0.855500
[rank 1, worker 16] busy ratio: 0.852883
[rank 1, worker 17] busy ratio: 0.854873
[rank 1, worker 18] busy ratio: 0.800999
[rank 1, worker 19] busy ratio: 0.789498
[rank 1, worker 20] busy ratio: 0.780569
[rank 1, worker 21] busy ratio: 0.858980
[rank 1, worker 22] busy ratio: 0.853987
[rank 1, worker 23] busy ratio: 0.853057
[rank 1, worker 24] busy ratio: 0.793917
[rank 1, worker 25] busy ratio: 0.795279
[rank 1, worker 26] busy ratio: 0.787833
[rank 1, worker 27] busy ratio: 0.803693
[rank 1, worker 28] busy ratio: 0.748071
[rank 1, worker 29] busy ratio: 0.735926
[rank 1, worker 30] busy ratio: 0.736571
[rank 1, worker 31] busy ratio: 0.728924
[rank 1, worker 32] busy ratio: 0.747881
[rank 1, worker 33] busy ratio: 0.758323
[rank 1, worker 34] busy ratio: 0.749205
[rank 1, worker 35] busy ratio: 0.753632
[rank 1, worker 36] busy ratio: 0.744365
[rank 1, worker 37] busy ratio: 0.750530
[rank 1, worker 38] busy ratio: 0.741301
[rank 1, worker 39] busy ratio: 0.753518
[rank 1, worker 40] busy ratio: 0.753669
[rank 1, worker 41] busy ratio: 0.741111
[rank 1, worker 42] busy ratio: 0.743683
[rank 1, worker 43] busy ratio: 0.743341
[rank 1, worker 44] busy ratio: 0.729722
[rank 0, worker 51] busy ratio: 0.794825
[rank 0, worker 52] busy ratio: 0.794674
[rank 0, worker 53] busy ratio: 0.795764
[rank 0, worker 54] busy ratio: 0.783628
[rank 0, worker 55] busy ratio: 0.751059
[rank 1, worker 45] busy ratio: 0.746406
[rank 1, worker 46] busy ratio: 0.757264
[rank 1, worker 47] busy ratio: 0.758209
[rank 1, worker 48] busy ratio: 0.742433
[rank 1, worker 49] busy ratio: 0.734564
[rank 1, worker 50] busy ratio: 0.718868
[rank 1, worker 51] busy ratio: 0.748941
[rank 1, worker 52] busy ratio: 0.760291
[rank 1, worker 53] busy ratio: 0.744591
[rank 1, worker 54] busy ratio: 0.739374
[rank 1, worker 55] busy ratio: 0.684131
[rank 2, worker 0] busy ratio: 0.953844
[rank 2, worker 1] busy ratio: 0.825692
[rank 2, worker 2] busy ratio: 0.830962
[rank 2, worker 3] busy ratio: 0.833989
[rank 2, worker 4] busy ratio: 0.810107
[rank 2, worker 5] busy ratio: 0.810230
[rank 2, worker 6] busy ratio: 0.842559
[rank 2, worker 7] busy ratio: 0.836713
[rank 2, worker 8] busy ratio: 0.832980
[rank 2, worker 9] busy ratio: 0.835250
[rank 2, worker 10] busy ratio: 0.808926
[rank 2, worker 11] busy ratio: 0.805387
[rank 2, worker 12] busy ratio: 0.808804
[rank 2, worker 13] busy ratio: 0.816614
[rank 2, worker 14] busy ratio: 0.823877
[rank 2, worker 15] busy ratio: 0.831139
[rank 2, worker 16] busy ratio: 0.829626
[rank 2, worker 17] busy ratio: 0.834669
[rank 2, worker 18] busy ratio: 0.804719
[rank 2, worker 19] busy ratio: 0.814703
[rank 2, worker 20] busy ratio: 0.814249
[rank 2, worker 21] busy ratio: 0.824330
[rank 2, worker 22] busy ratio: 0.827383
[rank 2, worker 23] busy ratio: 0.823601
[rank 2, worker 24] busy ratio: 0.807413
[rank 2, worker 25] busy ratio: 0.800756
[rank 2, worker 26] busy ratio: 0.807896
[rank 2, worker 27] busy ratio: 0.810561
[rank 2, worker 28] busy ratio: 0.761653
[rank 2, worker 29] busy ratio: 0.749092
[rank 2, worker 30] busy ratio: 0.755485
[rank 2, worker 31] busy ratio: 0.759189
[rank 2, worker 32] busy ratio: 0.760176
[rank 2, worker 33] busy ratio: 0.763202
[rank 2, worker 34] busy ratio: 0.767055
[rank 2, worker 35] busy ratio: 0.753669
[rank 2, worker 36] busy ratio: 0.757108
[rank 2, worker 37] busy ratio: 0.762632
[rank 2, worker 38] busy ratio: 0.753404
[rank 2, worker 39] busy ratio: 0.756581
[rank 2, worker 40] busy ratio: 0.762855
[rank 2, worker 41] busy ratio: 0.754766
[rank 2, worker 42] busy ratio: 0.752952
[rank 2, worker 43] busy ratio: 0.759643
[rank 2, worker 44] busy ratio: 0.761573
Loop time of 66.1267 on 224 procs for 100 steps with 55296000 atoms

Performance: 653.291 tau/day, 1.512 timesteps/s
4391.8% CPU use with 4 MPI tasks x 56 OpenMP threads

MPI task timing breakdown:
Section |  min time  |  avg time  |  max time  |%varavg| %total
---------------------------------------------------------------
[rank 2, worker 45] busy ratio: 0.755562
[rank 2, worker 46] busy ratio: 0.768684
[rank 2, worker 47] busy ratio: 0.754954
[rank 2, worker 48] busy ratio: 0.757906
[rank 2, worker 49] busy ratio: 0.766868
[rank 2, worker 50] busy ratio: 0.757149
[rank 2, worker 51] busy ratio: 0.765658
[rank 2, worker 52] busy ratio: 0.773559
[rank 2, worker 53] busy ratio: 0.769103
[rank 2, worker 54] busy ratio: 0.735966
[rank 2, worker 55] busy ratio: 0.706630
Pair    | 31.541     | 32.193     | 32.936     |   8.9 | 48.68
Neigh   | 6.6298     | 6.8585     | 7.0834     |   6.6 | 10.37
Comm    | 7.5923     | 12.046     | 14.253     |  76.4 | 18.22
Output  | 0.0036826  | 0.045481   | 0.14214    |  26.3 |  0.07
Modify  | 1.7099     | 2.0021     | 2.2036     |  13.4 |  3.03
Other   |            | 12.98      |            |       | 19.63

Nlocal:    1.3824e+07 ave 1.38247e+07 max 1.38235e+07 min
Histogram: 1 1 0 0 0 0 1 0 0 1
Nghost:    1.01912e+06 ave 1.01965e+06 max 1.0184e+06 min
Histogram: 1 0 0 0 1 0 0 0 1 1
Neighs:    0 ave 0 max 0 min
Histogram: 4 0 0 0 0 0 0 0 0 0
FullNghs:  1.0383e+09 ave 1.03837e+09 max 1.03824e+09 min
Histogram: 1 0 1 0 0 1 0 0 0 1

Total # of neighbors = 4.1532e+09
Ave neighs/atom = 75.1085
Neighbor list builds = 5
Dangerous builds not checked
Total wall time: 0:01:28
