LAMMPS (7 Aug 2019)
KOKKOS mode is enabled (../kokkos.cpp:85)
  will use up to 0 GPU(s) per node
  using 56 OpenMP thread(s) per MPI task
Lattice spacing in x,y,z = 1.6796 1.6796 1.6796
Created orthogonal box = (0 0 0) to (134.368 134.368 134.368)
  1 by 2 by 2 MPI processor grid
Created 2048000 atoms
  create_atoms CPU = 1.5967 secs
Neighbor list info ...
  update every 20 steps, delay 0 steps, check no
  max neighbors/atom: 2000, page size: 100000
  master list distance cutoff = 2.8
  ghost atom cutoff = 2.8
  binsize = 1.4, bins = 96 96 96
  1 neighbor lists, perpetual/occasional/extra = 1 0 0
  (1) pair lj/cut/kk, perpetual
      attributes: full, newton off, kokkos_device
      pair build: full/bin/kk/device
      stencil: full/bin/3d
      bin: kk/device
Setting up Verlet run ...
  Unit style    : lj
  Current step  : 0
  Time step     : 0.005
Per MPI rank memory allocation (min/avg/max) = 1166 | 1166 | 1166 Mbytes
Step Temp E_pair E_mol TotEng Press 
       0         1.44   -6.7733681            0   -4.6133691   -5.0196699 
     100   0.75921977   -5.7611315            0   -4.6223024   0.19208802 
[rank 1, worker 0] busy ratio: 0.987469
[rank 1, worker 1] busy ratio: 0.902256
[rank 1, worker 2] busy ratio: 0.887218
[rank 1, worker 3] busy ratio: 0.899497
[rank 1, worker 4] busy ratio: 0.909320
[rank 1, worker 5] busy ratio: 0.882206
[rank 1, worker 6] busy ratio: 0.877500
[rank 1, worker 7] busy ratio: 0.894207
[rank 1, worker 8] busy ratio: 0.897243
[rank 1, worker 9] busy ratio: 0.894207
[rank 0, worker 0] busy ratio: 0.982456
[rank 0, worker 1] busy ratio: 0.902010
[rank 0, worker 2] busy ratio: 0.894737
[rank 0, worker 3] busy ratio: 0.881910
[rank 3, worker 0] busy ratio: 0.984962
[rank 3, worker 1] busy ratio: 0.902500
[rank 3, worker 2] busy ratio: 0.914787
[rank 3, worker 3] busy ratio: 0.914573
[rank 3, worker 4] busy ratio: 0.912281
[rank 3, worker 5] busy ratio: 0.897243
[rank 3, worker 6] busy ratio: 0.891688
[rank 3, worker 7] busy ratio: 0.909774
[rank 3, worker 8] busy ratio: 0.919598
[rank 3, worker 9] busy ratio: 0.920000
[rank 3, worker 10] busy ratio: 0.912060
[rank 1, worker 10] busy ratio: 0.876574
[rank 1, worker 11] busy ratio: 0.876884
[rank 1, worker 12] busy ratio: 0.879397
[rank 1, worker 13] busy ratio: 0.879397
[rank 1, worker 14] busy ratio: 0.889447
[rank 1, worker 15] busy ratio: 0.899497
[rank 1, worker 16] busy ratio: 0.876884
[rank 1, worker 17] busy ratio: 0.887218
[rank 1, worker 18] busy ratio: 0.877193
[rank 1, worker 19] busy ratio: 0.871537
[rank 1, worker 20] busy ratio: 0.874372
[rank 1, worker 21] busy ratio: 0.887218
[rank 1, worker 22] busy ratio: 0.879397
[rank 1, worker 23] busy ratio: 0.887218
[rank 1, worker 24] busy ratio: 0.869347
[rank 1, worker 25] busy ratio: 0.864322
[rank 1, worker 26] busy ratio: 0.866834
[rank 1, worker 27] busy ratio: 0.857855
[rank 1, worker 28] busy ratio: 0.871537
[rank 1, worker 29] busy ratio: 0.873737
[rank 1, worker 30] busy ratio: 0.864322
[rank 1, worker 31] busy ratio: 0.861461
[rank 1, worker 32] busy ratio: 0.864662
[rank 3, worker 11] busy ratio: 0.904762
[rank 3, worker 12] busy ratio: 0.897243
[rank 3, worker 13] busy ratio: 0.896725
[rank 1, worker 33] busy ratio: 0.864322
[rank 1, worker 34] busy ratio: 0.861809
[rank 1, worker 35] busy ratio: 0.853904
[rank 3, worker 14] busy ratio: 0.907268
[rank 3, worker 15] busy ratio: 0.909548
[rank 1, worker 36] busy ratio: 0.861809
[rank 1, worker 37] busy ratio: 0.857143
[rank 0, worker 4] busy ratio: 0.899244
[rank 0, worker 5] busy ratio: 0.881910
[rank 0, worker 6] busy ratio: 0.874687
[rank 0, worker 7] busy ratio: 0.896725
[rank 0, worker 8] busy ratio: 0.894737
[rank 0, worker 9] busy ratio: 0.899497
[rank 0, worker 10] busy ratio: 0.876884
[rank 0, worker 11] busy ratio: 0.874372
[rank 3, worker 16] busy ratio: 0.904762
[rank 3, worker 17] busy ratio: 0.897243
[rank 1, worker 38] busy ratio: 0.863980
[rank 1, worker 39] busy ratio: 0.857143
[rank 0, worker 12] busy ratio: 0.871537
[rank 0, worker 13] busy ratio: 0.866834
[rank 0, worker 14] busy ratio: 0.894472
[rank 3, worker 18] busy ratio: 0.896725
[rank 3, worker 19] busy ratio: 0.884131
[rank 3, worker 20] busy ratio: 0.884422
[rank 1, worker 40] busy ratio: 0.861809
[rank 1, worker 41] busy ratio: 0.862155
[rank 0, worker 15] busy ratio: 0.886935
[rank 0, worker 16] busy ratio: 0.887218
[rank 3, worker 21] busy ratio: 0.896985
[rank 3, worker 22] busy ratio: 0.889447
[rank 1, worker 42] busy ratio: 0.856784
[rank 1, worker 43] busy ratio: 0.854271
[rank 1, worker 44] busy ratio: 0.859296
[rank 1, worker 45] busy ratio: 0.844612
[rank 1, worker 46] busy ratio: 0.851759
[rank 2, worker 0] busy ratio: 0.984887
[rank 2, worker 1] busy ratio: 0.870000
[rank 2, worker 2] busy ratio: 0.889724
[rank 2, worker 3] busy ratio: 0.891960
[rank 2, worker 4] busy ratio: 0.891960
[rank 2, worker 5] busy ratio: 0.871537
[rank 2, worker 6] busy ratio: 0.876884
[rank 2, worker 7] busy ratio: 0.889447
[rank 2, worker 8] busy ratio: 0.886935
[rank 2, worker 9] busy ratio: 0.889447
[rank 0, worker 17] busy ratio: 0.884422
[rank 0, worker 18] busy ratio: 0.856784
[rank 3, worker 23] busy ratio: 0.894737
[rank 3, worker 24] busy ratio: 0.876574
[rank 1, worker 47] busy ratio: 0.854637
[rank 1, worker 48] busy ratio: 0.854271
[rank 2, worker 10] busy ratio: 0.871859
[rank 2, worker 11] busy ratio: 0.869347
[rank 2, worker 12] busy ratio: 0.874055
[rank 2, worker 13] busy ratio: 0.872180
[rank 2, worker 14] busy ratio: 0.887218
[rank 2, worker 15] busy ratio: 0.884712
[rank 2, worker 16] busy ratio: 0.886650
[rank 2, worker 17] busy ratio: 0.889169
[rank 2, worker 18] busy ratio: 0.861809
[rank 2, worker 19] busy ratio: 0.867168
[rank 2, worker 20] busy ratio: 0.859649
[rank 2, worker 21] busy ratio: 0.874687
[rank 2, worker 22] busy ratio: 0.871859
[rank 2, worker 23] busy ratio: 0.862500
[rank 2, worker 24] busy ratio: 0.864662
[rank 2, worker 25] busy ratio: 0.869674
[rank 2, worker 26] busy ratio: 0.869674
[rank 2, worker 27] busy ratio: 0.872818
[rank 2, worker 28] busy ratio: 0.861809
[rank 2, worker 29] busy ratio: 0.862155
[rank 2, worker 30] busy ratio: 0.858942
[rank 2, worker 31] busy ratio: 0.854271
[rank 2, worker 32] busy ratio: 0.849246
[rank 2, worker 33] busy ratio: 0.856423
[rank 2, worker 34] busy ratio: 0.856423
[rank 2, worker 35] busy ratio: 0.851759
[rank 0, worker 19] busy ratio: 0.859649
[rank 0, worker 20] busy ratio: 0.866834
[rank 3, worker 25] busy ratio: 0.879397
[rank 3, worker 26] busy ratio: 0.884712
[rank 3, worker 27] busy ratio: 0.872180
[rank 1, worker 49] busy ratio: 0.856784
[rank 1, worker 50] busy ratio: 0.853904
[rank 2, worker 36] busy ratio: 0.846348
[rank 2, worker 37] busy ratio: 0.851759
[rank 2, worker 38] busy ratio: 0.851385
[rank 2, worker 39] busy ratio: 0.847118
[rank 0, worker 21] busy ratio: 0.882500
[rank 0, worker 22] busy ratio: 0.887218
[rank 3, worker 28] busy ratio: 0.894737
[rank 3, worker 29] busy ratio: 0.882206
[rank 1, worker 51] busy ratio: 0.852130
[rank 1, worker 52] busy ratio: 0.844612
[rank 2, worker 40] busy ratio: 0.839599
[rank 2, worker 41] busy ratio: 0.836683
[rank 0, worker 23] busy ratio: 0.880000
[rank 0, worker 24] busy ratio: 0.857143
[rank 3, worker 30] busy ratio: 0.879699
[rank 3, worker 31] busy ratio: 0.884422
[rank 3, worker 32] busy ratio: 0.882206
[rank 3, worker 33] busy ratio: 0.886935
[rank 1, worker 53] busy ratio: 0.844221
[rank 1, worker 54] busy ratio: 0.852130
[rank 1, worker 55] busy ratio: 0.852500
[rank 2, worker 42] busy ratio: 0.836683
[rank 2, worker 43] busy ratio: 0.836683
[rank 0, worker 25] busy ratio: 0.849246
[rank 0, worker 26] busy ratio: 0.856784
[rank 3, worker 34] busy ratio: 0.879699
[rank 3, worker 35] busy ratio: 0.879397
[rank 2, worker 44] busy ratio: 0.851759
[rank 2, worker 45] busy ratio: 0.834586
[rank 0, worker 27] busy ratio: 0.846734
[rank 0, worker 28] busy ratio: 0.871212
[rank 0, worker 29] busy ratio: 0.869347
[rank 0, worker 30] busy ratio: 0.866499
[rank 3, worker 36] busy ratio: 0.875000
[rank 3, worker 37] busy ratio: 0.869674
[rank 3, worker 38] busy ratio: 0.875000
[rank 2, worker 46] busy ratio: 0.841310
[rank 2, worker 47] busy ratio: 0.839196
[rank 2, worker 48] busy ratio: 0.836683
[rank 2, worker 49] busy ratio: 0.841709
[rank 2, worker 50] busy ratio: 0.834586
[rank 0, worker 31] busy ratio: 0.859296
[rank 0, worker 32] busy ratio: 0.861809
[rank 0, worker 33] busy ratio: 0.858942
[rank 3, worker 39] busy ratio: 0.879699
[rank 2, worker 51] busy ratio: 0.846734
[rank 2, worker 52] busy ratio: 0.832500
[rank 2, worker 53] busy ratio: 0.839196
[rank 2, worker 54] busy ratio: 0.829146
[rank 2, worker 55] busy ratio: 0.824121
[rank 0, worker 34] busy ratio: 0.856423
[rank 0, worker 35] busy ratio: 0.856423
[rank 3, worker 40] busy ratio: 0.881910
[rank 3, worker 41] busy ratio: 0.872180
[rank 0, worker 36] busy ratio: 0.844221
[rank 0, worker 37] busy ratio: 0.841709
[rank 3, worker 42] busy ratio: 0.869674
[rank 3, worker 43] busy ratio: 0.869674
[rank 3, worker 44] busy ratio: 0.864662
[rank 0, worker 38] busy ratio: 0.851759
[rank 0, worker 39] busy ratio: 0.852130
[rank 3, worker 45] busy ratio: 0.877500
[rank 3, worker 46] busy ratio: 0.871859
[rank 0, worker 40] busy ratio: 0.849624
[rank 0, worker 41] busy ratio: 0.849246
[rank 3, worker 47] busy ratio: 0.867500
[rank 0, worker 42] busy ratio: 0.839599
[rank 0, worker 43] busy ratio: 0.837093
[rank 3, worker 48] busy ratio: 0.864662
[rank 0, worker 44] busy ratio: 0.837093
[rank 0, worker 45] busy ratio: 0.871859
[rank 3, worker 49] busy ratio: 0.871859
[rank 3, worker 50] busy ratio: 0.867168
[rank 0, worker 46] busy ratio: 0.844612
[rank 0, worker 47] busy ratio: 0.831658
[rank 0, worker 48] busy ratio: 0.831658
[rank 0, worker 49] busy ratio: 0.835000
[rank 0, worker 50] busy ratio: 0.839196
[rank 0, worker 51] busy ratio: 0.834171
[rank 0, worker 52] busy ratio: 0.824561
[rank 3, worker 51] busy ratio: 0.864662
[rank 3, worker 52] busy ratio: 0.875000
[rank 3, worker 53] busy ratio: 0.867168
[rank 0, worker 53] busy ratio: 0.830000
[rank 0, worker 54] busy ratio: 0.831658
[rank 3, worker 54] busy ratio: 0.865000
[rank 3, worker 55] busy ratio: 0.869674
[rank 0, worker 55] busy ratio: 0.829574
Loop time of 3.99687 on 224 procs for 100 steps with 2048000 atoms

Performance: 10808.455 tau/day, 25.020 timesteps/s
4794.8% CPU use with 4 MPI tasks x 56 OpenMP threads

MPI task timing breakdown:
Section |  min time  |  avg time  |  max time  |%varavg| %total
---------------------------------------------------------------
Pair    | 1.2992     | 1.3101     | 1.331      |   1.1 | 32.78
Neigh   | 0.22429    | 0.23046    | 0.23861    |   1.1 |  5.77
Comm    | 1.2223     | 1.4026     | 1.4978     |   9.5 | 35.09
Output  | 0.00013209 | 0.0022837  | 0.0043764  |   3.2 |  0.06
Modify  | 0.41279    | 0.45522    | 0.50896    |   6.3 | 11.39
Other   |            | 0.5963     |            |       | 14.92

Nlocal:    512000 ave 512063 max 511907 min
Histogram: 1 0 0 0 1 0 0 0 0 2
Nghost:    118534 ave 118636 max 118416 min
Histogram: 1 0 0 0 0 2 0 0 0 1
Neighs:    0 ave 0 max 0 min
Histogram: 4 0 0 0 0 0 0 0 0 0
FullNghs:  3.8457e+07 ave 3.8468e+07 max 3.84444e+07 min
Histogram: 1 0 0 0 0 1 1 0 0 1

Total # of neighbors = 153828000
Ave neighs/atom = 75.1113
Neighbor list builds = 5
Dangerous builds not checked
Total wall time: 0:00:06
