LAMMPS (7 Aug 2019)
KOKKOS mode is enabled (../kokkos.cpp:85)
  will use up to 0 GPU(s) per node
  using 56 OpenMP thread(s) per MPI task
Lattice spacing in x,y,z = 1.6796 1.6796 1.6796
Created orthogonal box = (0 0 0) to (201.552 201.552 201.552)
  1 by 2 by 2 MPI processor grid
Created 6912000 atoms
  create_atoms CPU = 3.70298 secs
Neighbor list info ...
  update every 20 steps, delay 0 steps, check no
  max neighbors/atom: 2000, page size: 100000
  master list distance cutoff = 2.8
  ghost atom cutoff = 2.8
  binsize = 1.4, bins = 144 144 144
  1 neighbor lists, perpetual/occasional/extra = 1 0 0
  (1) pair lj/cut/kk, perpetual
      attributes: full, newton off, kokkos_device
      pair build: full/bin/kk/device
      stencil: full/bin/3d
      bin: kk/device
Setting up Verlet run ...
  Unit style    : lj
  Current step  : 0
  Time step     : 0.005
Per MPI rank memory allocation (min/avg/max) = 3650 | 3650 | 3650 Mbytes
Step Temp E_pair E_mol TotEng Press 
       0         1.44   -6.7733681            0   -4.6133684   -5.0196694 
     100   0.75929363   -5.7612508            0   -4.6223105   0.19076255 
[rank 0, worker 0] busy ratio: 0.988584
[rank 0, worker 1] busy ratio: 0.909714
[rank 0, worker 2] busy ratio: 0.907640
[rank 0, worker 3] busy ratio: 0.907640
[rank 0, worker 4] busy ratio: 0.874142
[rank 0, worker 5] busy ratio: 0.869863
[rank 0, worker 6] busy ratio: 0.868871
[rank 0, worker 7] busy ratio: 0.908571
[rank 0, worker 8] busy ratio: 0.905467
[rank 0, worker 9] busy ratio: 0.906393
[rank 0, worker 10] busy ratio: 0.872292
[rank 0, worker 11] busy ratio: 0.859589
[rank 0, worker 12] busy ratio: 0.858609
[rank 3, worker 0] busy ratio: 0.994292
[rank 3, worker 1] busy ratio: 0.886986
[rank 3, worker 2] busy ratio: 0.882420
[rank 3, worker 3] busy ratio: 0.883694
[rank 3, worker 4] busy ratio: 0.857306
[rank 3, worker 5] busy ratio: 0.837714
[rank 3, worker 6] busy ratio: 0.848519
[rank 3, worker 7] busy ratio: 0.885845
[rank 3, worker 8] busy ratio: 0.882554
[rank 0, worker 13] busy ratio: 0.860889
[rank 0, worker 14] busy ratio: 0.904110
[rank 3, worker 9] busy ratio: 0.881279
[rank 3, worker 10] busy ratio: 0.848174
[rank 3, worker 11] busy ratio: 0.840365
[rank 3, worker 12] busy ratio: 0.830296
[rank 3, worker 13] busy ratio: 0.841686
[rank 3, worker 14] busy ratio: 0.880137
[rank 3, worker 15] busy ratio: 0.881549
[rank 3, worker 16] busy ratio: 0.878132
[rank 0, worker 15] busy ratio: 0.897494
[rank 0, worker 16] busy ratio: 0.898402
[rank 3, worker 17] busy ratio: 0.879133
[rank 3, worker 18] busy ratio: 0.852740
[rank 3, worker 19] busy ratio: 0.843607
[rank 0, worker 17] busy ratio: 0.899543
[rank 0, worker 18] busy ratio: 0.857306
[rank 3, worker 20] busy ratio: 0.842645
[rank 3, worker 21] busy ratio: 0.875854
[rank 3, worker 22] busy ratio: 0.873432
[rank 1, worker 0] busy ratio: 0.990878
[rank 1, worker 1] busy ratio: 0.923690
[rank 1, worker 2] busy ratio: 0.930365
[rank 1, worker 3] busy ratio: 0.925799
[rank 1, worker 4] busy ratio: 0.834664
[rank 1, worker 5] busy ratio: 0.828767
[rank 1, worker 6] busy ratio: 0.818493
[rank 1, worker 7] busy ratio: 0.931663
[rank 1, worker 8] busy ratio: 0.922463
[rank 0, worker 19] busy ratio: 0.853881
[rank 0, worker 20] busy ratio: 0.862030
[rank 3, worker 23] busy ratio: 0.871298
[rank 3, worker 24] busy ratio: 0.848347
[rank 0, worker 21] busy ratio: 0.906499
[rank 0, worker 22] busy ratio: 0.900798
[rank 3, worker 25] busy ratio: 0.836944
[rank 3, worker 26] busy ratio: 0.856164
[rank 3, worker 27] busy ratio: 0.836944
[rank 1, worker 9] busy ratio: 0.928164
[rank 1, worker 10] busy ratio: 0.833713
[rank 1, worker 11] busy ratio: 0.812073
[rank 1, worker 12] busy ratio: 0.802511
[rank 1, worker 13] busy ratio: 0.825342
[rank 1, worker 14] busy ratio: 0.925799
[rank 1, worker 15] busy ratio: 0.924658
[rank 1, worker 16] busy ratio: 0.925884
[rank 1, worker 17] busy ratio: 0.919042
[rank 1, worker 18] busy ratio: 0.839408
[rank 1, worker 19] busy ratio: 0.809578
[rank 1, worker 20] busy ratio: 0.827822
[rank 1, worker 21] busy ratio: 0.923603
[rank 1, worker 22] busy ratio: 0.922374
[rank 1, worker 23] busy ratio: 0.917902
[rank 1, worker 24] busy ratio: 0.819840
[rank 1, worker 25] busy ratio: 0.823261
[rank 1, worker 26] busy ratio: 0.804795
[rank 1, worker 27] busy ratio: 0.817560
[rank 1, worker 28] busy ratio: 0.800000
[rank 1, worker 29] busy ratio: 0.795662
[rank 1, worker 30] busy ratio: 0.783352
[rank 1, worker 31] busy ratio: 0.797035
[rank 0, worker 23] busy ratio: 0.897377
[rank 0, worker 24] busy ratio: 0.854048
[rank 3, worker 28] busy ratio: 0.856000
[rank 3, worker 29] busy ratio: 0.841505
[rank 1, worker 32] busy ratio: 0.786773
[rank 1, worker 33] busy ratio: 0.814857
[rank 1, worker 34] busy ratio: 0.808219
[rank 0, worker 25] busy ratio: 0.855023
[rank 0, worker 26] busy ratio: 0.849315
[rank 3, worker 30] busy ratio: 0.843607
[rank 3, worker 31] busy ratio: 0.844926
[rank 3, worker 32] busy ratio: 0.829909
[rank 1, worker 35] busy ratio: 0.786773
[rank 1, worker 36] busy ratio: 0.794989
[rank 0, worker 27] busy ratio: 0.853881
[rank 0, worker 28] busy ratio: 0.818493
[rank 0, worker 29] busy ratio: 0.809361
[rank 0, worker 30] busy ratio: 0.821918
[rank 0, worker 31] busy ratio: 0.828767
[rank 0, worker 32] busy ratio: 0.835616
[rank 0, worker 33] busy ratio: 0.827626
[rank 3, worker 33] busy ratio: 0.854048
[rank 3, worker 34] busy ratio: 0.836758
[rank 3, worker 35] busy ratio: 0.845890
[rank 3, worker 36] busy ratio: 0.850457
[rank 1, worker 37] busy ratio: 0.792237
[rank 1, worker 38] busy ratio: 0.803653
[rank 0, worker 34] busy ratio: 0.842466
[rank 0, worker 35] busy ratio: 0.809361
[rank 3, worker 37] busy ratio: 0.834664
[rank 3, worker 38] busy ratio: 0.840183
[rank 3, worker 39] busy ratio: 0.834475
[rank 1, worker 39] busy ratio: 0.810934
[rank 1, worker 40] busy ratio: 0.786773
[rank 0, worker 36] busy ratio: 0.830857
[rank 0, worker 37] busy ratio: 0.837714
[rank 3, worker 40] busy ratio: 0.846857
[rank 3, worker 41] busy ratio: 0.843607
[rank 2, worker 0] busy ratio: 0.994318
[rank 2, worker 1] busy ratio: 0.888128
[rank 2, worker 2] busy ratio: 0.889396
[rank 2, worker 3] busy ratio: 0.892816
[rank 2, worker 4] busy ratio: 0.850627
[rank 2, worker 5] busy ratio: 0.847206
[rank 2, worker 6] busy ratio: 0.828571
[rank 2, worker 7] busy ratio: 0.892816
[rank 2, worker 8] busy ratio: 0.892694
[rank 2, worker 9] busy ratio: 0.897260
[rank 1, worker 41] busy ratio: 0.790194
[rank 1, worker 42] busy ratio: 0.784493
[rank 1, worker 43] busy ratio: 0.809143
[rank 1, worker 44] busy ratio: 0.781072
[rank 1, worker 45] busy ratio: 0.796804
[rank 0, worker 38] busy ratio: 0.829909
[rank 0, worker 39] busy ratio: 0.839225
[rank 3, worker 42] busy ratio: 0.847032
[rank 3, worker 43] busy ratio: 0.849487
[rank 2, worker 10] busy ratio: 0.835616
[rank 2, worker 11] busy ratio: 0.832383
[rank 2, worker 12] busy ratio: 0.824201
[rank 2, worker 13] busy ratio: 0.835616
[rank 2, worker 14] busy ratio: 0.892816
[rank 2, worker 15] busy ratio: 0.890536
[rank 2, worker 16] busy ratio: 0.885845
[rank 2, worker 17] busy ratio: 0.891676
[rank 2, worker 18] busy ratio: 0.827626
[rank 2, worker 19] busy ratio: 0.842466
[rank 2, worker 20] busy ratio: 0.832192
[rank 2, worker 21] busy ratio: 0.889396
[rank 2, worker 22] busy ratio: 0.890536
[rank 2, worker 23] busy ratio: 0.890286
[rank 2, worker 24] busy ratio: 0.832192
[rank 2, worker 25] busy ratio: 0.828571
[rank 2, worker 26] busy ratio: 0.828571
[rank 2, worker 27] busy ratio: 0.826286
[rank 2, worker 28] busy ratio: 0.808219
[rank 2, worker 29] busy ratio: 0.802961
[rank 2, worker 30] busy ratio: 0.792237
[rank 2, worker 31] busy ratio: 0.794286
[rank 2, worker 32] busy ratio: 0.812785
[rank 2, worker 33] busy ratio: 0.805936
[rank 1, worker 46] busy ratio: 0.792000
[rank 1, worker 47] busy ratio: 0.774230
[rank 0, worker 40] busy ratio: 0.810502
[rank 0, worker 41] busy ratio: 0.843786
[rank 3, worker 44] busy ratio: 0.845890
[rank 3, worker 45] busy ratio: 0.854857
[rank 2, worker 34] busy ratio: 0.820571
[rank 2, worker 35] busy ratio: 0.779932
[rank 2, worker 36] busy ratio: 0.807298
[rank 1, worker 48] busy ratio: 0.817768
[rank 1, worker 49] busy ratio: 0.775371
[rank 0, worker 42] busy ratio: 0.803653
[rank 0, worker 43] busy ratio: 0.832192
[rank 3, worker 46] busy ratio: 0.849315
[rank 3, worker 47] busy ratio: 0.826682
[rank 2, worker 37] busy ratio: 0.825143
[rank 2, worker 38] busy ratio: 0.785388
[rank 1, worker 50] busy ratio: 0.799316
[rank 1, worker 51] busy ratio: 0.792237
[rank 0, worker 44] busy ratio: 0.842645
[rank 0, worker 45] busy ratio: 0.813714
[rank 3, worker 48] busy ratio: 0.857631
[rank 3, worker 49] busy ratio: 0.835804
[rank 3, worker 50] busy ratio: 0.840183
[rank 2, worker 39] busy ratio: 0.812999
[rank 2, worker 40] busy ratio: 0.773973
[rank 1, worker 52] busy ratio: 0.801822
[rank 1, worker 53] busy ratio: 0.791572
[rank 0, worker 46] busy ratio: 0.820776
[rank 0, worker 47] busy ratio: 0.828962
[rank 0, worker 48] busy ratio: 0.811644
[rank 0, worker 49] busy ratio: 0.840547
[rank 0, worker 50] busy ratio: 0.801370
[rank 0, worker 51] busy ratio: 0.839225
[rank 0, worker 52] busy ratio: 0.831050
[rank 3, worker 51] busy ratio: 0.843786
[rank 3, worker 52] busy ratio: 0.855188
[rank 2, worker 41] busy ratio: 0.813212
[rank 2, worker 42] busy ratio: 0.786530
[rank 1, worker 54] busy ratio: 0.776511
[rank 1, worker 55] busy ratio: 0.707763
[rank 0, worker 53] busy ratio: 0.807517
[rank 0, worker 54] busy ratio: 0.823261
[rank 3, worker 53] busy ratio: 0.835804
[rank 3, worker 54] busy ratio: 0.838084
[rank 2, worker 43] busy ratio: 0.799087
[rank 2, worker 44] busy ratio: 0.808000
[rank 2, worker 45] busy ratio: 0.795895
[rank 2, worker 46] busy ratio: 0.794755
[rank 0, worker 55] busy ratio: 0.760274
[rank 3, worker 55] busy ratio: 0.783105
[rank 2, worker 47] busy ratio: 0.793143
[rank 2, worker 48] busy ratio: 0.789714
Loop time of 8.77754 on 224 procs for 100 steps with 6912000 atoms

[rank 2, worker 49] busy ratio: 0.825342
[rank 2, worker 50] busy ratio: 0.772831
[rank 2, worker 51] busy ratio: 0.818286
[rank 2, worker 52] busy ratio: 0.819635
[rank 2, worker 53] busy ratio: 0.778032
[rank 2, worker 54] busy ratio: 0.799087
[rank 2, worker 55] busy ratio: 0.748858
Performance: 4921.652 tau/day, 11.393 timesteps/s
4660.5% CPU use with 4 MPI tasks x 56 OpenMP threads

MPI task timing breakdown:
Section |  min time  |  avg time  |  max time  |%varavg| %total
---------------------------------------------------------------
Pair    | 5.431      | 5.6146     | 5.9389     |   8.7 | 63.97
Neigh   | 0.7607     | 0.78652    | 0.8016     |   1.8 |  8.96
Comm    | 0.94097    | 1.3503     | 1.5943     |  21.1 | 15.38
Output  | 0.00036909 | 0.012767   | 0.017782   |   6.4 |  0.15
Modify  | 0.32811    | 0.47112    | 0.61656    |  19.4 |  5.37
Other   |            | 0.5423     |            |       |  6.18

Nlocal:    1.728e+06 ave 1.72823e+06 max 1.72772e+06 min
Histogram: 1 0 0 0 0 1 1 0 0 1
Nghost:    260645 ave 260881 max 260518 min
Histogram: 1 1 1 0 0 0 0 0 0 1
Neighs:    0 ave 0 max 0 min
Histogram: 4 0 0 0 0 0 0 0 0 0
FullNghs:  1.2979e+08 ave 1.29814e+08 max 1.29771e+08 min
Histogram: 1 0 1 0 0 1 0 0 0 1

Total # of neighbors = 519161500
Ave neighs/atom = 75.1102
Neighbor list builds = 5
Dangerous builds not checked
Total wall time: 0:00:13
