LAMMPS (7 Aug 2019)
KOKKOS mode is enabled (../kokkos.cpp:85)
  will use up to 0 GPU(s) per node
  using 56 OpenMP thread(s) per MPI task
Lattice spacing in x,y,z = 1.6796 1.6796 1.6796
Created orthogonal box = (0 0 0) to (335.919 335.919 335.919)
  1 by 2 by 2 MPI processor grid
Created 32000000 atoms
  create_atoms CPU = 10.5576 secs
Neighbor list info ...
  update every 20 steps, delay 0 steps, check no
  max neighbors/atom: 2000, page size: 100000
  master list distance cutoff = 2.8
  ghost atom cutoff = 2.8
  binsize = 1.4, bins = 240 240 240
  1 neighbor lists, perpetual/occasional/extra = 1 0 0
  (1) pair lj/cut/kk, perpetual
      attributes: full, newton off, kokkos_device
      pair build: full/bin/kk/device
      stencil: full/bin/3d
      bin: kk/device
Setting up Verlet run ...
  Unit style    : lj
  Current step  : 0
  Time step     : 0.005
Per MPI rank memory allocation (min/avg/max) = 1.584e+04 | 1.584e+04 | 1.584e+04 Mbytes
Step Temp E_pair E_mol TotEng Press 
       0         1.44   -6.7733681            0   -4.6133681   -5.0196693 
     100   0.75941602   -5.7614399            0   -4.6223159   0.19027589 
[rank 0, worker 0] busy ratio: 0.976639
[rank 0, worker 1] busy ratio: 0.843293
[rank 0, worker 2] busy ratio: 0.839618
[rank 0, worker 3] busy ratio: 0.837135
[rank 1, worker 0] busy ratio: 0.986200
[rank 1, worker 1] busy ratio: 0.796439
[rank 1, worker 2] busy ratio: 0.792884
[rank 1, worker 3] busy ratio: 0.807223
[rank 1, worker 4] busy ratio: 0.742424
[rank 1, worker 5] busy ratio: 0.734396
[rank 1, worker 6] busy ratio: 0.733404
[rank 1, worker 7] busy ratio: 0.805681
[rank 1, worker 8] busy ratio: 0.802282
[rank 0, worker 4] busy ratio: 0.761829
[rank 0, worker 5] busy ratio: 0.706273
[rank 0, worker 6] busy ratio: 0.682966
[rank 0, worker 7] busy ratio: 0.840988
[rank 0, worker 8] busy ratio: 0.843377
[rank 0, worker 9] busy ratio: 0.842929
[rank 0, worker 10] busy ratio: 0.678970
[rank 0, worker 11] busy ratio: 0.666667
[rank 0, worker 12] busy ratio: 0.669764
[rank 0, worker 13] busy ratio: 0.659676
[rank 0, worker 14] busy ratio: 0.842091
[rank 0, worker 15] busy ratio: 0.848461
[rank 0, worker 16] busy ratio: 0.848011
[rank 0, worker 17] busy ratio: 0.851645
[rank 0, worker 18] busy ratio: 0.662331
[rank 0, worker 19] busy ratio: 0.654724
[rank 0, worker 20] busy ratio: 0.651089
[rank 0, worker 21] busy ratio: 0.847134
[rank 1, worker 9] busy ratio: 0.808386
[rank 1, worker 10] busy ratio: 0.726235
[rank 1, worker 11] busy ratio: 0.721529
[rank 1, worker 12] busy ratio: 0.722783
[rank 1, worker 13] busy ratio: 0.719862
[rank 1, worker 14] busy ratio: 0.810510
[rank 1, worker 15] busy ratio: 0.804619
[rank 1, worker 16] busy ratio: 0.804936
[rank 1, worker 17] busy ratio: 0.808917
[rank 1, worker 18] busy ratio: 0.719331
[rank 1, worker 19] busy ratio: 0.712693
[rank 1, worker 20] busy ratio: 0.712238
[rank 1, worker 21] busy ratio: 0.812848
[rank 1, worker 22] busy ratio: 0.797452
[rank 1, worker 23] busy ratio: 0.808968
[rank 1, worker 24] busy ratio: 0.712693
[rank 1, worker 25] busy ratio: 0.715158
[rank 1, worker 26] busy ratio: 0.712351
[rank 1, worker 27] busy ratio: 0.713907
[rank 1, worker 28] busy ratio: 0.652405
[rank 1, worker 29] busy ratio: 0.637088
[rank 1, worker 30] busy ratio: 0.631802
[rank 1, worker 31] busy ratio: 0.648792
[rank 1, worker 32] busy ratio: 0.634095
[rank 2, worker 0] busy ratio: 0.989650
[rank 2, worker 1] busy ratio: 0.782297
[rank 2, worker 2] busy ratio: 0.777011
[rank 2, worker 3] busy ratio: 0.784975
[rank 2, worker 4] busy ratio: 0.732802
[rank 2, worker 5] busy ratio: 0.729952
[rank 2, worker 6] busy ratio: 0.725969
[rank 2, worker 7] busy ratio: 0.786359
[rank 2, worker 8] busy ratio: 0.786624
[rank 0, worker 22] busy ratio: 0.822889
[rank 0, worker 23] busy ratio: 0.845317
[rank 1, worker 33] busy ratio: 0.634988
[rank 1, worker 34] busy ratio: 0.629846
[rank 1, worker 35] busy ratio: 0.635881
[rank 2, worker 9] busy ratio: 0.788957
[rank 2, worker 10] busy ratio: 0.728697
[rank 2, worker 11] busy ratio: 0.727828
[rank 2, worker 12] busy ratio: 0.728962
[rank 2, worker 13] busy ratio: 0.727900
[rank 2, worker 14] busy ratio: 0.792197
[rank 2, worker 15] busy ratio: 0.786890
[rank 2, worker 16] busy ratio: 0.786037
[rank 2, worker 17] busy ratio: 0.791987
[rank 2, worker 18] busy ratio: 0.728962
[rank 2, worker 19] busy ratio: 0.728093
[rank 2, worker 20] busy ratio: 0.724184
[rank 2, worker 21] busy ratio: 0.787686
[rank 2, worker 22] busy ratio: 0.788160
[rank 2, worker 23] busy ratio: 0.791611
[rank 2, worker 24] busy ratio: 0.723726
[rank 2, worker 25] busy ratio: 0.733546
[rank 2, worker 26] busy ratio: 0.727635
[rank 2, worker 27] busy ratio: 0.729034
[rank 2, worker 28] busy ratio: 0.671273
[rank 2, worker 29] busy ratio: 0.656839
[rank 2, worker 30] busy ratio: 0.653570
[rank 2, worker 31] busy ratio: 0.654020
[rank 2, worker 32] busy ratio: 0.634192
[rank 2, worker 33] busy ratio: 0.648168
[rank 0, worker 24] busy ratio: 0.666755
[rank 0, worker 25] busy ratio: 0.646762
[rank 1, worker 36] busy ratio: 0.621980
[rank 1, worker 37] busy ratio: 0.628754
[rank 2, worker 34] busy ratio: 0.629049
[rank 2, worker 35] busy ratio: 0.652070
[rank 2, worker 36] busy ratio: 0.657552
[rank 0, worker 26] busy ratio: 0.656408
[rank 0, worker 27] busy ratio: 0.648355
[rank 0, worker 28] busy ratio: 0.652058
[rank 0, worker 29] busy ratio: 0.601594
[rank 1, worker 38] busy ratio: 0.640127
[rank 1, worker 39] busy ratio: 0.614813
[rank 2, worker 37] busy ratio: 0.642952
[rank 2, worker 38] busy ratio: 0.631970
[rank 0, worker 30] busy ratio: 0.615773
[rank 0, worker 31] busy ratio: 0.614752
[rank 0, worker 32] busy ratio: 0.619326
[rank 1, worker 40] busy ratio: 0.627123
[rank 1, worker 41] busy ratio: 0.625531
[rank 2, worker 39] busy ratio: 0.620919
[rank 2, worker 40] busy ratio: 0.642686
[rank 0, worker 33] busy ratio: 0.642231
[rank 0, worker 34] busy ratio: 0.604830
[rank 1, worker 42] busy ratio: 0.627024
[rank 1, worker 43] busy ratio: 0.620919
[rank 3, worker 0] busy ratio: 0.994425
[rank 3, worker 1] busy ratio: 0.753388
[rank 3, worker 2] busy ratio: 0.749602
[rank 3, worker 3] busy ratio: 0.754447
[rank 3, worker 4] busy ratio: 0.736591
[rank 3, worker 5] busy ratio: 0.720924
[rank 3, worker 6] busy ratio: 0.721795
[rank 3, worker 7] busy ratio: 0.759225
[rank 3, worker 8] busy ratio: 0.758099
[rank 3, worker 9] busy ratio: 0.755042
[rank 3, worker 10] busy ratio: 0.721721
[rank 3, worker 11] busy ratio: 0.721190
[rank 3, worker 12] busy ratio: 0.718003
[rank 3, worker 13] busy ratio: 0.723240
[rank 3, worker 14] busy ratio: 0.760021
[rank 3, worker 15] busy ratio: 0.749735
[rank 3, worker 16] busy ratio: 0.760489
[rank 3, worker 17] busy ratio: 0.759820
[rank 3, worker 18] busy ratio: 0.717547
[rank 3, worker 19] busy ratio: 0.722325
[rank 3, worker 20] busy ratio: 0.727972
[rank 3, worker 21] busy ratio: 0.760350
[rank 3, worker 22] busy ratio: 0.758959
[rank 3, worker 23] busy ratio: 0.756836
[rank 3, worker 24] busy ratio: 0.723992
[rank 3, worker 25] busy ratio: 0.712616
[rank 3, worker 26] busy ratio: 0.720659
[rank 3, worker 27] busy ratio: 0.714817
[rank 3, worker 28] busy ratio: 0.707570
[rank 3, worker 29] busy ratio: 0.694105
[rank 3, worker 30] busy ratio: 0.699681
[rank 3, worker 31] busy ratio: 0.699602
[rank 3, worker 32] busy ratio: 0.677111
[rank 3, worker 33] busy ratio: 0.674369
[rank 3, worker 34] busy ratio: 0.674721
[rank 3, worker 35] busy ratio: 0.692777
[rank 3, worker 36] busy ratio: 0.690122
[rank 3, worker 37] busy ratio: 0.693655
[rank 3, worker 38] busy ratio: 0.678704
[rank 3, worker 39] busy ratio: 0.678439
[rank 3, worker 40] busy ratio: 0.676845
[rank 3, worker 41] busy ratio: 0.672776
[rank 3, worker 42] busy ratio: 0.698645
[rank 3, worker 43] busy ratio: 0.698965
[rank 3, worker 44] busy ratio: 0.687467
[rank 3, worker 45] busy ratio: 0.695883
[rank 3, worker 46] busy ratio: 0.677642
[rank 3, worker 47] busy ratio: 0.681009
[rank 3, worker 48] busy ratio: 0.674277
[rank 3, worker 49] busy ratio: 0.696841
[rank 3, worker 50] busy ratio: 0.693125
[rank 3, worker 51] busy ratio: 0.689857
[rank 3, worker 52] busy ratio: 0.678704
[rank 3, worker 53] busy ratio: 0.672066
[rank 3, worker 54] busy ratio: 0.675073
[rank 3, worker 55] busy ratio: 0.658789
[rank 2, worker 41] busy ratio: 0.617366
[rank 0, worker 35] busy ratio: 0.607749
[rank 0, worker 36] busy ratio: 0.733740
[rank 1, worker 44] busy ratio: 0.625066
[rank 1, worker 45] busy ratio: 0.625597
[rank 1, worker 46] busy ratio: 0.617998
[rank 1, worker 47] busy ratio: 0.627987
[rank 1, worker 48] busy ratio: 0.637643
[rank 1, worker 49] busy ratio: 0.623673
[rank 2, worker 42] busy ratio: 0.644887
[rank 2, worker 43] busy ratio: 0.646762
[rank 2, worker 44] busy ratio: 0.630614
[rank 2, worker 45] busy ratio: 0.644108
[rank 2, worker 46] busy ratio: 0.625000
[rank 0, worker 37] busy ratio: 0.598779
[rank 0, worker 38] busy ratio: 0.600743
[rank 1, worker 50] busy ratio: 0.636315
[rank 1, worker 51] busy ratio: 0.639862
[rank 2, worker 47] busy ratio: 0.627821
[rank 2, worker 48] busy ratio: 0.626327
[rank 0, worker 39] busy ratio: 0.596496
[rank 0, worker 40] busy ratio: 0.640828
[rank 1, worker 52] busy ratio: 0.631802
[rank 1, worker 53] busy ratio: 0.614119
[rank 2, worker 49] busy ratio: 0.636412
[rank 2, worker 50] busy ratio: 0.627191
[rank 0, worker 41] busy ratio: 0.610138
[rank 0, worker 42] busy ratio: 0.596179
[rank 1, worker 54] busy ratio: 0.621449
[rank 1, worker 55] busy ratio: 0.632935
[rank 2, worker 51] busy ratio: 0.620223
[rank 2, worker 52] busy ratio: 0.642421
[rank 0, worker 43] busy ratio: 0.590813
[rank 0, worker 44] busy ratio: 0.607588
[rank 2, worker 53] busy ratio: 0.637739
[rank 2, worker 54] busy ratio: 0.626759
[rank 0, worker 45] busy ratio: 0.593045
[rank 0, worker 46] busy ratio: 0.604509
[rank 0, worker 47] busy ratio: 0.607380
[rank 0, worker 48] busy ratio: 0.586518
[rank 0, worker 49] busy ratio: 0.598885
[rank 0, worker 50] busy ratio: 0.588485
[rank 0, worker 51] busy ratio: 0.597292
[rank 0, worker 52] busy ratio: 0.595011
[rank 2, worker 55] busy ratio: 0.630112
[rank 0, worker 53] busy ratio: 0.614119
[rank 0, worker 54] busy ratio: 0.596761
[rank 0, worker 55] busy ratio: 0.623739
Loop time of 37.6881 on 224 procs for 100 steps with 32000000 atoms

Performance: 1146.251 tau/day, 2.653 timesteps/s
3889.7% CPU use with 4 MPI tasks x 56 OpenMP threads

MPI task timing breakdown:
Section |  min time  |  avg time  |  max time  |%varavg| %total
---------------------------------------------------------------
Pair    | 22.845     | 25.373     | 28.862     |  43.5 | 67.32
Neigh   | 3.8281     | 3.8791     | 3.9475     |   2.2 | 10.29
Comm    | 2.5658     | 5.8841     | 8.1687     |  84.9 | 15.61
Output  | 0.0020892  | 0.09185    | 0.14429    |  18.3 |  0.24
Modify  | 1.0234     | 1.1189     | 1.2168     |   7.3 |  2.97
Other   |            | 1.341      |            |       |  3.56

Nlocal:    8e+06 ave 8.00017e+06 max 7.99976e+06 min
Histogram: 1 0 0 0 0 0 2 0 0 1
Nghost:    711029 ave 711274 max 710914 min
Histogram: 2 0 1 0 0 0 0 0 0 1
Neighs:    0 ave 0 max 0 min
Histogram: 4 0 0 0 0 0 0 0 0 0
FullNghs:  6.00869e+08 ave 6.00884e+08 max 6.0085e+08 min
Histogram: 1 0 0 0 0 1 1 0 0 1

Total # of neighbors = 2.40348e+09
Ave neighs/atom = 75.1087
Neighbor list builds = 5
Dangerous builds not checked
Total wall time: 0:00:52
