LAMMPS (7 Aug 2019)
KOKKOS mode is enabled (../kokkos.cpp:85)
  will use up to 0 GPU(s) per node
  using 56 OpenMP thread(s) per MPI task
Lattice spacing in x,y,z = 1.6796 1.6796 1.6796
Created orthogonal box = (0 0 0) to (268.735 268.735 268.735)
  1 by 2 by 2 MPI processor grid
Created 16384000 atoms
  create_atoms CPU = 6.9876 secs
Neighbor list info ...
  update every 20 steps, delay 0 steps, check no
  max neighbors/atom: 2000, page size: 100000
  master list distance cutoff = 2.8
  ghost atom cutoff = 2.8
  binsize = 1.4, bins = 192 192 192
  1 neighbor lists, perpetual/occasional/extra = 1 0 0
  (1) pair lj/cut/kk, perpetual
      attributes: full, newton off, kokkos_device
      pair build: full/bin/kk/device
      stencil: full/bin/3d
      bin: kk/device
Setting up Verlet run ...
  Unit style    : lj
  Current step  : 0
  Time step     : 0.005
Per MPI rank memory allocation (min/avg/max) = 8306 | 8306 | 8306 Mbytes
Step Temp E_pair E_mol TotEng Press 
       0         1.44   -6.7733681            0   -4.6133682   -5.0196693 
     100   0.75918554   -5.7610896            0   -4.6223114   0.19195085 
[rank 3, worker 0] busy ratio: 0.993999
[rank 3, worker 1] busy ratio: 0.850644
[rank 3, worker 2] busy ratio: 0.873125
[rank 3, worker 3] busy ratio: 0.865409
[rank 3, worker 4] busy ratio: 0.821184
[rank 3, worker 5] busy ratio: 0.794168
[rank 3, worker 6] busy ratio: 0.791935
[rank 3, worker 7] busy ratio: 0.873125
[rank 1, worker 0] busy ratio: 0.992285
[rank 1, worker 1] busy ratio: 0.872587
[rank 1, worker 2] busy ratio: 0.855551
[rank 1, worker 3] busy ratio: 0.868410
[rank 1, worker 4] busy ratio: 0.795708
[rank 1, worker 5] busy ratio: 0.788074
[rank 1, worker 6] busy ratio: 0.791256
[rank 1, worker 7] busy ratio: 0.874893
[rank 0, worker 0] busy ratio: 0.992281
[rank 0, worker 1] busy ratio: 0.874678
[rank 0, worker 2] busy ratio: 0.867124
[rank 0, worker 3] busy ratio: 0.879606
[rank 0, worker 4] busy ratio: 0.801458
[rank 3, worker 8] busy ratio: 0.871410
[rank 3, worker 9] busy ratio: 0.876125
[rank 3, worker 10] busy ratio: 0.793991
[rank 3, worker 11] busy ratio: 0.788503
[rank 3, worker 12] busy ratio: 0.787827
[rank 3, worker 13] busy ratio: 0.771343
[rank 3, worker 14] busy ratio: 0.862350
[rank 3, worker 15] busy ratio: 0.879177
[rank 3, worker 16] busy ratio: 0.867067
[rank 3, worker 17] busy ratio: 0.869696
[rank 3, worker 18] busy ratio: 0.779160
[rank 1, worker 8] busy ratio: 0.862896
[rank 1, worker 9] busy ratio: 0.873982
[rank 1, worker 10] busy ratio: 0.783877
[rank 1, worker 11] busy ratio: 0.785163
[rank 1, worker 12] busy ratio: 0.788593
[rank 1, worker 13] busy ratio: 0.782255
[rank 1, worker 14] busy ratio: 0.868466
[rank 1, worker 15] busy ratio: 0.855918
[rank 1, worker 16] busy ratio: 0.870553
[rank 1, worker 17] busy ratio: 0.870553
[rank 1, worker 18] busy ratio: 0.790309
[rank 1, worker 19] busy ratio: 0.787489
[rank 1, worker 20] busy ratio: 0.787827
[rank 1, worker 21] busy ratio: 0.876178
[rank 0, worker 5] busy ratio: 0.793739
[rank 0, worker 6] busy ratio: 0.792024
[rank 0, worker 7] busy ratio: 0.878645
[rank 0, worker 8] busy ratio: 0.871894
[rank 0, worker 9] busy ratio: 0.880514
[rank 0, worker 10] busy ratio: 0.785684
[rank 0, worker 11] busy ratio: 0.788165
[rank 0, worker 12] busy ratio: 0.790309
[rank 0, worker 13] busy ratio: 0.782869
[rank 3, worker 19] busy ratio: 0.788684
[rank 3, worker 20] busy ratio: 0.784398
[rank 3, worker 21] busy ratio: 0.866695
[rank 1, worker 22] busy ratio: 0.873608
[rank 1, worker 23] busy ratio: 0.882555
[rank 1, worker 24] busy ratio: 0.774968
[rank 2, worker 0] busy ratio: 0.988846
[rank 2, worker 1] busy ratio: 0.873499
[rank 2, worker 2] busy ratio: 0.885126
[rank 2, worker 3] busy ratio: 0.871465
[rank 2, worker 4] busy ratio: 0.798456
[rank 2, worker 5] busy ratio: 0.787307
[rank 2, worker 6] busy ratio: 0.787645
[rank 2, worker 7] busy ratio: 0.869696
[rank 2, worker 8] busy ratio: 0.873982
[rank 0, worker 14] busy ratio: 0.878749
[rank 0, worker 15] busy ratio: 0.886033
[rank 0, worker 16] busy ratio: 0.881269
[rank 3, worker 22] busy ratio: 0.876501
[rank 3, worker 23] busy ratio: 0.871410
[rank 3, worker 24] busy ratio: 0.788165
[rank 1, worker 25] busy ratio: 0.777444
[rank 1, worker 26] busy ratio: 0.780875
[rank 2, worker 9] busy ratio: 0.868838
[rank 2, worker 10] busy ratio: 0.782590
[rank 2, worker 11] busy ratio: 0.785929
[rank 2, worker 12] busy ratio: 0.782590
[rank 2, worker 13] busy ratio: 0.792970
[rank 2, worker 14] busy ratio: 0.877892
[rank 2, worker 15] busy ratio: 0.883033
[rank 2, worker 16] busy ratio: 0.878268
[rank 2, worker 17] busy ratio: 0.893745
[rank 2, worker 18] busy ratio: 0.791595
[rank 2, worker 19] busy ratio: 0.782161
[rank 2, worker 20] busy ratio: 0.786112
[rank 2, worker 21] busy ratio: 0.889460
[rank 2, worker 22] busy ratio: 0.890317
[rank 2, worker 23] busy ratio: 0.892413
[rank 0, worker 17] busy ratio: 0.876231
[rank 0, worker 18] busy ratio: 0.798456
[rank 3, worker 25] busy ratio: 0.776158
[rank 3, worker 26] busy ratio: 0.775825
[rank 1, worker 27] busy ratio: 0.780875
[rank 1, worker 28] busy ratio: 0.700000
[rank 2, worker 24] busy ratio: 0.782348
[rank 2, worker 25] busy ratio: 0.794168
[rank 2, worker 26] busy ratio: 0.783355
[rank 0, worker 19] busy ratio: 0.787061
[rank 0, worker 20] busy ratio: 0.784826
[rank 3, worker 27] busy ratio: 0.770682
[rank 3, worker 28] busy ratio: 0.780017
[rank 3, worker 29] busy ratio: 0.758473
[rank 1, worker 29] busy ratio: 0.657082
[rank 1, worker 30] busy ratio: 0.664522
[rank 2, worker 27] busy ratio: 0.780969
[rank 2, worker 28] busy ratio: 0.684414
[rank 0, worker 21] busy ratio: 0.883033
[rank 0, worker 22] busy ratio: 0.885176
[rank 3, worker 30] busy ratio: 0.763192
[rank 3, worker 31] busy ratio: 0.755679
[rank 1, worker 31] busy ratio: 0.650515
[rank 1, worker 32] busy ratio: 0.662377
[rank 1, worker 33] busy ratio: 0.654226
[rank 2, worker 29] busy ratio: 0.657094
[rank 2, worker 30] busy ratio: 0.671239
[rank 0, worker 23] busy ratio: 0.887366
[rank 0, worker 24] busy ratio: 0.782441
[rank 3, worker 32] busy ratio: 0.759434
[rank 3, worker 33] busy ratio: 0.756757
[rank 3, worker 34] busy ratio: 0.744425
[rank 1, worker 34] busy ratio: 0.652230
[rank 1, worker 35] busy ratio: 0.653665
[rank 1, worker 36] busy ratio: 0.669237
[rank 1, worker 37] busy ratio: 0.667525
[rank 2, worker 31] busy ratio: 0.664807
[rank 2, worker 32] busy ratio: 0.673671
[rank 0, worker 25] busy ratio: 0.791256
[rank 0, worker 26] busy ratio: 0.780111
[rank 3, worker 35] busy ratio: 0.758251
[rank 3, worker 36] busy ratio: 0.764781
[rank 3, worker 37] busy ratio: 0.763496
[rank 1, worker 38] busy ratio: 0.622642
[rank 1, worker 39] busy ratio: 0.644940
[rank 1, worker 40] busy ratio: 0.659237
[rank 2, worker 33] busy ratio: 0.678526
[rank 2, worker 34] busy ratio: 0.656237
[rank 0, worker 27] busy ratio: 0.775493
[rank 0, worker 28] busy ratio: 0.680979
[rank 3, worker 38] busy ratio: 0.745603
[rank 3, worker 39] busy ratio: 0.756861
[rank 1, worker 41] busy ratio: 0.671527
[rank 1, worker 42] busy ratio: 0.646655
[rank 2, worker 35] busy ratio: 0.648220
[rank 2, worker 36] busy ratio: 0.703815
[rank 2, worker 37] busy ratio: 0.669383
[rank 2, worker 38] busy ratio: 0.660377
[rank 0, worker 29] busy ratio: 0.637066
[rank 0, worker 30] busy ratio: 0.656665
[rank 0, worker 31] busy ratio: 0.654670
[rank 0, worker 32] busy ratio: 0.624357
[rank 0, worker 33] busy ratio: 0.675525
[rank 3, worker 40] busy ratio: 0.763395
[rank 3, worker 41] busy ratio: 0.761578
[rank 3, worker 42] busy ratio: 0.766094
[rank 1, worker 43] busy ratio: 0.670094
[rank 1, worker 44] busy ratio: 0.655513
[rank 2, worker 39] busy ratio: 0.632075
[rank 2, worker 40] busy ratio: 0.632233
[rank 2, worker 41] busy ratio: 0.663379
[rank 0, worker 34] busy ratio: 0.653516
[rank 0, worker 35] busy ratio: 0.637532
[rank 3, worker 43] busy ratio: 0.754612
[rank 3, worker 44] busy ratio: 0.762109
[rank 1, worker 45] busy ratio: 0.653665
[rank 1, worker 46] busy ratio: 0.661664
[rank 2, worker 42] busy ratio: 0.638937
[rank 2, worker 43] busy ratio: 0.666667
[rank 0, worker 36] busy ratio: 0.706815
[rank 0, worker 37] busy ratio: 0.627787
[rank 3, worker 45] busy ratio: 0.764681
[rank 3, worker 46] busy ratio: 0.753108
[rank 3, worker 47] busy ratio: 0.760618
[rank 1, worker 47] busy ratio: 0.666810
[rank 1, worker 48] busy ratio: 0.690956
[rank 2, worker 44] busy ratio: 0.644940
[rank 2, worker 45] busy ratio: 0.625375
[rank 0, worker 38] busy ratio: 0.664524
[rank 0, worker 39] busy ratio: 0.625964
[rank 3, worker 48] busy ratio: 0.777635
[rank 3, worker 49] busy ratio: 0.749464
[rank 1, worker 49] busy ratio: 0.639091
[rank 1, worker 50] busy ratio: 0.697555
[rank 2, worker 46] busy ratio: 0.625643
[rank 2, worker 47] busy ratio: 0.669383
[rank 0, worker 40] busy ratio: 0.637961
[rank 0, worker 41] busy ratio: 0.669524
[rank 3, worker 50] busy ratio: 0.760394
[rank 3, worker 51] busy ratio: 0.754183
[rank 1, worker 51] busy ratio: 0.642520
[rank 1, worker 52] busy ratio: 0.643806
[rank 2, worker 48] busy ratio: 0.610039
[rank 2, worker 49] busy ratio: 0.691252
[rank 0, worker 42] busy ratio: 0.631105
[rank 0, worker 43] busy ratio: 0.667524
[rank 3, worker 52] busy ratio: 0.755146
[rank 3, worker 53] busy ratio: 0.753754
[rank 3, worker 54] busy ratio: 0.752573
[rank 1, worker 53] busy ratio: 0.644235
[rank 1, worker 54] busy ratio: 0.613967
[rank 1, worker 55] busy ratio: 0.683105
[rank 2, worker 50] busy ratio: 0.613967
[rank 2, worker 51] busy ratio: 0.643102
[rank 0, worker 44] busy ratio: 0.648672
[rank 0, worker 45] busy ratio: 0.631534
[rank 3, worker 55] busy ratio: 0.746998
[rank 2, worker 52] busy ratio: 0.623822
[rank 2, worker 53] busy ratio: 0.636520
[rank 0, worker 46] busy ratio: 0.642520
[rank 0, worker 47] busy ratio: 0.689374
[rank 2, worker 54] busy ratio: 0.655513
[rank 2, worker 55] busy ratio: 0.691120
[rank 0, worker 48] busy ratio: 0.623661
[rank 0, worker 49] busy ratio: 0.705227
[rank 0, worker 50] busy ratio: 0.588513
[rank 0, worker 51] busy ratio: 0.663952
[rank 0, worker 52] busy ratio: 0.635818
[rank 0, worker 53] busy ratio: 0.656237
[rank 0, worker 54] busy ratio: 0.667095
[rank 0, worker 55] busy ratio: 0.704672
Loop time of 23.3436 on 224 procs for 100 steps with 16384000 atoms

Performance: 1850.613 tau/day, 4.284 timesteps/s
4187.9% CPU use with 4 MPI tasks x 56 OpenMP threads

MPI task timing breakdown:
Section |  min time  |  avg time  |  max time  |%varavg| %total
---------------------------------------------------------------
Pair    | 16.181     | 17.124     | 17.658     |  13.8 | 73.36
Neigh   | 1.8242     | 1.9239     | 2.1093     |   8.1 |  8.24
Comm    | 1.9129     | 2.2628     | 2.5313     |  17.5 |  9.69
Output  | 0.0011494  | 0.039333   | 0.091649   |  17.5 |  0.17
Modify  | 0.54178    | 0.58893    | 0.65022    |   5.4 |  2.52
Other   |            | 1.405      |            |       |  6.02

Nlocal:    4.096e+06 ave 4.09657e+06 max 4.09544e+06 min
Histogram: 1 0 0 1 0 0 1 0 0 1
Nghost:    458178 ave 458566 max 457741 min
Histogram: 1 0 0 0 1 0 0 1 0 1
Neighs:    0 ave 0 max 0 min
Histogram: 4 0 0 0 0 0 0 0 0 0
FullNghs:  3.07645e+08 ave 3.07688e+08 max 3.07588e+08 min
Histogram: 1 0 0 0 1 0 0 0 1 1

Total # of neighbors = 1230581798
Ave neighs/atom = 75.1088
Neighbor list builds = 5
Dangerous builds not checked
Total wall time: 0:00:33
