LAMMPS (7 Aug 2019)
KOKKOS mode is enabled (../kokkos.cpp:85)
  will use up to 0 GPU(s) per node
  using 56 OpenMP thread(s) per MPI task
Lattice spacing in x,y,z = 1.6796 1.6796 1.6796
Created orthogonal box = (0 0 0) to (134.368 134.368 134.368)
  1 by 2 by 2 MPI processor grid
Created 2048000 atoms
  create_atoms CPU = 1.62077 secs
Neighbor list info ...
  update every 20 steps, delay 0 steps, check no
  max neighbors/atom: 2000, page size: 100000
  master list distance cutoff = 2.8
  ghost atom cutoff = 2.8
  binsize = 1.4, bins = 96 96 96
  1 neighbor lists, perpetual/occasional/extra = 1 0 0
  (1) pair lj/cut/kk, perpetual
      attributes: full, newton off, kokkos_device
      pair build: full/bin/kk/device
      stencil: full/bin/3d
      bin: kk/device
Setting up Verlet run ...
  Unit style    : lj
  Current step  : 0
  Time step     : 0.005
Per MPI rank memory allocation (min/avg/max) = 1166 | 1166 | 1166 Mbytes
Step Temp E_pair E_mol TotEng Press 
       0         1.44   -6.7733681            0   -4.6133691   -5.0196699 
     100   0.75921977   -5.7611315            0   -4.6223024   0.19208802 
[rank 3, worker 0] busy ratio: 0.960506
[rank 3, worker 1] busy ratio: 0.846276
[rank 3, worker 2] busy ratio: 0.849445
[rank 3, worker 3] busy ratio: 0.846276
[rank 3, worker 4] busy ratio: 0.833861
[rank 3, worker 5] busy ratio: 0.815873
[rank 3, worker 6] busy ratio: 0.825949
[rank 3, worker 7] busy ratio: 0.852615
[rank 1, worker 0] busy ratio: 0.958665
[rank 1, worker 1] busy ratio: 0.797468
[rank 1, worker 2] busy ratio: 0.800317
[rank 1, worker 3] busy ratio: 0.793978
[rank 1, worker 4] busy ratio: 0.816165
[rank 1, worker 5] busy ratio: 0.768254
[rank 1, worker 6] busy ratio: 0.776899
[rank 1, worker 7] busy ratio: 0.814873
[rank 1, worker 8] busy ratio: 0.816456
[rank 0, worker 0] busy ratio: 0.966719
[rank 0, worker 1] busy ratio: 0.833597
[rank 0, worker 2] busy ratio: 0.821203
[rank 0, worker 3] busy ratio: 0.825674
[rank 3, worker 8] busy ratio: 0.870048
[rank 3, worker 9] busy ratio: 0.858730
[rank 3, worker 10] busy ratio: 0.819905
[rank 3, worker 11] busy ratio: 0.812995
[rank 3, worker 12] busy ratio: 0.816456
[rank 3, worker 13] busy ratio: 0.814873
[rank 3, worker 14] busy ratio: 0.841521
[rank 3, worker 15] busy ratio: 0.850794
[rank 3, worker 16] busy ratio: 0.839937
[rank 3, worker 17] busy ratio: 0.841270
[rank 2, worker 0] busy ratio: 0.959055
[rank 2, worker 1] busy ratio: 0.870048
[rank 2, worker 2] busy ratio: 0.868463
[rank 2, worker 3] busy ratio: 0.876387
[rank 2, worker 4] busy ratio: 0.847619
[rank 2, worker 5] busy ratio: 0.841772
[rank 2, worker 6] busy ratio: 0.838352
[rank 2, worker 7] busy ratio: 0.876190
[rank 1, worker 9] busy ratio: 0.810127
[rank 1, worker 10] busy ratio: 0.768621
[rank 1, worker 11] busy ratio: 0.766667
[rank 1, worker 12] busy ratio: 0.767036
[rank 1, worker 13] busy ratio: 0.766562
[rank 1, worker 14] busy ratio: 0.811709
[rank 1, worker 15] busy ratio: 0.805071
[rank 1, worker 16] busy ratio: 0.792393
[rank 1, worker 17] busy ratio: 0.811709
[rank 1, worker 18] busy ratio: 0.757528
[rank 1, worker 19] busy ratio: 0.759113
[rank 1, worker 20] busy ratio: 0.758294
[rank 1, worker 21] busy ratio: 0.786392
[rank 1, worker 22] busy ratio: 0.789223
[rank 0, worker 4] busy ratio: 0.792063
[rank 0, worker 5] busy ratio: 0.771791
[rank 0, worker 6] busy ratio: 0.763867
[rank 0, worker 7] busy ratio: 0.823529
[rank 0, worker 8] busy ratio: 0.825949
[rank 0, worker 9] busy ratio: 0.821203
[rank 0, worker 10] busy ratio: 0.773376
[rank 0, worker 11] busy ratio: 0.762282
[rank 0, worker 12] busy ratio: 0.765452
[rank 0, worker 13] busy ratio: 0.761076
[rank 0, worker 14] busy ratio: 0.827258
[rank 3, worker 18] busy ratio: 0.816165
[rank 3, worker 19] busy ratio: 0.809524
[rank 3, worker 20] busy ratio: 0.809826
[rank 1, worker 23] busy ratio: 0.789557
[rank 1, worker 24] busy ratio: 0.757911
[rank 1, worker 25] busy ratio: 0.754747
[rank 0, worker 15] busy ratio: 0.830964
[rank 0, worker 16] busy ratio: 0.821203
[rank 0, worker 17] busy ratio: 0.819620
[rank 3, worker 21] busy ratio: 0.834921
[rank 3, worker 22] busy ratio: 0.836767
[rank 2, worker 8] busy ratio: 0.871429
[rank 2, worker 9] busy ratio: 0.877971
[rank 2, worker 10] busy ratio: 0.834921
[rank 2, worker 11] busy ratio: 0.837025
[rank 2, worker 12] busy ratio: 0.840442
[rank 2, worker 13] busy ratio: 0.835443
[rank 2, worker 14] busy ratio: 0.876582
[rank 2, worker 15] busy ratio: 0.876387
[rank 2, worker 16] busy ratio: 0.865506
[rank 2, worker 17] busy ratio: 0.868463
[rank 2, worker 18] busy ratio: 0.835182
[rank 2, worker 19] busy ratio: 0.838095
[rank 2, worker 20] busy ratio: 0.833861
[rank 2, worker 21] busy ratio: 0.871632
[rank 1, worker 26] busy ratio: 0.752773
[rank 1, worker 27] busy ratio: 0.753555
[rank 0, worker 18] busy ratio: 0.748418
[rank 0, worker 19] busy ratio: 0.751189
[rank 3, worker 23] busy ratio: 0.838352
[rank 3, worker 24] busy ratio: 0.806349
[rank 3, worker 25] busy ratio: 0.809524
[rank 2, worker 22] busy ratio: 0.862342
[rank 2, worker 23] busy ratio: 0.850794
[rank 1, worker 28] busy ratio: 0.768987
[rank 1, worker 29] busy ratio: 0.754747
[rank 0, worker 20] busy ratio: 0.752773
[rank 0, worker 21] busy ratio: 0.794629
[rank 3, worker 26] busy ratio: 0.806349
[rank 3, worker 27] busy ratio: 0.803487
[rank 2, worker 24] busy ratio: 0.838608
[rank 2, worker 25] busy ratio: 0.833333
[rank 1, worker 30] busy ratio: 0.754358
[rank 1, worker 31] busy ratio: 0.752773
[rank 0, worker 22] busy ratio: 0.800633
[rank 0, worker 23] busy ratio: 0.807267
[rank 3, worker 28] busy ratio: 0.813990
[rank 3, worker 29] busy ratio: 0.796825
[rank 3, worker 30] busy ratio: 0.793651
[rank 2, worker 26] busy ratio: 0.838608
[rank 2, worker 27] busy ratio: 0.830428
[rank 1, worker 32] busy ratio: 0.755943
[rank 1, worker 33] busy ratio: 0.746434
[rank 0, worker 24] busy ratio: 0.748019
[rank 0, worker 25] busy ratio: 0.740506
[rank 0, worker 26] busy ratio: 0.745253
[rank 3, worker 31] busy ratio: 0.792063
[rank 3, worker 32] busy ratio: 0.795238
[rank 2, worker 28] busy ratio: 0.843354
[rank 2, worker 29] busy ratio: 0.821485
[rank 1, worker 34] busy ratio: 0.751582
[rank 1, worker 35] busy ratio: 0.754747
[rank 1, worker 36] busy ratio: 0.738924
[rank 1, worker 37] busy ratio: 0.743671
[rank 1, worker 38] busy ratio: 0.744849
[rank 0, worker 27] busy ratio: 0.731438
[rank 0, worker 28] busy ratio: 0.777778
[rank 0, worker 29] busy ratio: 0.765452
[rank 0, worker 30] busy ratio: 0.760697
[rank 3, worker 33] busy ratio: 0.793651
[rank 3, worker 34] busy ratio: 0.787302
[rank 2, worker 30] busy ratio: 0.820350
[rank 2, worker 31] busy ratio: 0.816456
[rank 1, worker 39] busy ratio: 0.750000
[rank 1, worker 40] busy ratio: 0.738924
[rank 0, worker 31] busy ratio: 0.752773
[rank 0, worker 32] busy ratio: 0.760697
[rank 0, worker 33] busy ratio: 0.757528
[rank 3, worker 35] busy ratio: 0.779365
[rank 3, worker 36] busy ratio: 0.779715
[rank 3, worker 37] busy ratio: 0.776545
[rank 2, worker 32] busy ratio: 0.830696
[rank 2, worker 33] busy ratio: 0.817750
[rank 2, worker 34] busy ratio: 0.817750
[rank 2, worker 35] busy ratio: 0.812698
[rank 2, worker 36] busy ratio: 0.811410
[rank 1, worker 41] busy ratio: 0.749604
[rank 1, worker 42] busy ratio: 0.750794
[rank 0, worker 34] busy ratio: 0.755556
[rank 0, worker 35] busy ratio: 0.753165
[rank 3, worker 38] busy ratio: 0.792722
[rank 3, worker 39] busy ratio: 0.784127
[rank 2, worker 37] busy ratio: 0.808544
[rank 2, worker 38] busy ratio: 0.814580
[rank 1, worker 43] busy ratio: 0.735759
[rank 1, worker 44] busy ratio: 0.749604
[rank 0, worker 36] busy ratio: 0.749206
[rank 0, worker 37] busy ratio: 0.748019
[rank 3, worker 40] busy ratio: 0.795563
[rank 3, worker 41] busy ratio: 0.785714
[rank 2, worker 39] busy ratio: 0.813291
[rank 2, worker 40] busy ratio: 0.800317
[rank 1, worker 45] busy ratio: 0.735016
[rank 1, worker 46] busy ratio: 0.738924
[rank 0, worker 38] busy ratio: 0.755943
[rank 0, worker 39] busy ratio: 0.757143
[rank 3, worker 42] busy ratio: 0.776545
[rank 3, worker 43] busy ratio: 0.776545
[rank 3, worker 44] busy ratio: 0.786054
[rank 2, worker 41] busy ratio: 0.818038
[rank 2, worker 42] busy ratio: 0.807267
[rank 1, worker 47] busy ratio: 0.746835
[rank 1, worker 48] busy ratio: 0.742089
[rank 0, worker 40] busy ratio: 0.748418
[rank 0, worker 41] busy ratio: 0.744849
[rank 3, worker 45] busy ratio: 0.792393
[rank 3, worker 46] busy ratio: 0.779365
[rank 2, worker 43] busy ratio: 0.805071
[rank 2, worker 44] busy ratio: 0.815166
[rank 1, worker 49] busy ratio: 0.741325
[rank 1, worker 50] busy ratio: 0.735759
[rank 0, worker 42] busy ratio: 0.748019
[rank 0, worker 43] busy ratio: 0.743265
[rank 3, worker 47] busy ratio: 0.778130
[rank 3, worker 48] busy ratio: 0.777778
[rank 3, worker 49] busy ratio: 0.778481
[rank 2, worker 45] busy ratio: 0.810127
[rank 2, worker 46] busy ratio: 0.809826
[rank 1, worker 51] busy ratio: 0.737342
[rank 1, worker 52] busy ratio: 0.739336
[rank 0, worker 44] busy ratio: 0.746835
[rank 0, worker 45] busy ratio: 0.761076
[rank 3, worker 50] busy ratio: 0.787639
[rank 3, worker 51] busy ratio: 0.792393
[rank 2, worker 47] busy ratio: 0.803797
[rank 2, worker 48] busy ratio: 0.806962
[rank 1, worker 53] busy ratio: 0.729430
[rank 1, worker 54] busy ratio: 0.736593
[rank 1, worker 55] busy ratio: 0.735759
[rank 0, worker 46] busy ratio: 0.745253
[rank 0, worker 47] busy ratio: 0.741680
[rank 3, worker 52] busy ratio: 0.782884
[rank 3, worker 53] busy ratio: 0.779715
[rank 2, worker 49] busy ratio: 0.797468
[rank 2, worker 50] busy ratio: 0.802215
[rank 2, worker 51] busy ratio: 0.796209
[rank 2, worker 52] busy ratio: 0.810427
[rank 2, worker 53] busy ratio: 0.803797
[rank 2, worker 54] busy ratio: 0.805380
[rank 2, worker 55] busy ratio: 0.803797
[rank 0, worker 48] busy ratio: 0.745253
[rank 0, worker 49] busy ratio: 0.737342
[rank 0, worker 50] busy ratio: 0.743671
[rank 0, worker 51] busy ratio: 0.745656
[rank 0, worker 52] busy ratio: 0.742089
[rank 3, worker 54] busy ratio: 0.774960
[rank 3, worker 55] busy ratio: 0.782884
[rank 0, worker 53] busy ratio: 0.740506
[rank 0, worker 54] busy ratio: 0.732171
[rank 0, worker 55] busy ratio: 0.735759
Loop time of 6.33311 on 224 procs for 100 steps with 2048000 atoms

Performance: 6821.299 tau/day, 15.790 timesteps/s
4360.4% CPU use with 4 MPI tasks x 56 OpenMP threads

MPI task timing breakdown:
Section |  min time  |  avg time  |  max time  |%varavg| %total
---------------------------------------------------------------
Pair    | 1.4963     | 1.551      | 1.644      |   4.7 | 24.49
Neigh   | 0.23141    | 0.25887    | 0.29963    |   4.9 |  4.09
Comm    | 2.0159     | 2.541      | 2.9735     |  24.2 | 40.12
Output  | 0.0001927  | 0.0034294  | 0.0076247  |   5.3 |  0.05
Modify  | 0.7347     | 1.0618     | 1.5663     |  31.4 | 16.77
Other   |            | 0.917      |            |       | 14.48

Nlocal:    512000 ave 512063 max 511907 min
Histogram: 1 0 0 0 1 0 0 0 0 2
Nghost:    118534 ave 118636 max 118416 min
Histogram: 1 0 0 0 0 2 0 0 0 1
Neighs:    0 ave 0 max 0 min
Histogram: 4 0 0 0 0 0 0 0 0 0
FullNghs:  3.8457e+07 ave 3.8468e+07 max 3.84444e+07 min
Histogram: 1 0 0 0 0 1 1 0 0 1

Total # of neighbors = 153828000
Ave neighs/atom = 75.1113
Neighbor list builds = 5
Dangerous builds not checked
Total wall time: 0:00:08
