LAMMPS (7 Aug 2019)
KOKKOS mode is enabled (../kokkos.cpp:85)
  will use up to 0 GPU(s) per node
  using 56 OpenMP thread(s) per MPI task
Lattice spacing in x,y,z = 1.6796 1.6796 1.6796
Created orthogonal box = (0 0 0) to (268.735 268.735 268.735)
  1 by 2 by 2 MPI processor grid
Created 16384000 atoms
  create_atoms CPU = 6.99657 secs
Neighbor list info ...
  update every 20 steps, delay 0 steps, check no
  max neighbors/atom: 2000, page size: 100000
  master list distance cutoff = 2.8
  ghost atom cutoff = 2.8
  binsize = 1.4, bins = 192 192 192
  1 neighbor lists, perpetual/occasional/extra = 1 0 0
  (1) pair lj/cut/kk, perpetual
      attributes: full, newton off, kokkos_device
      pair build: full/bin/kk/device
      stencil: full/bin/3d
      bin: kk/device
Setting up Verlet run ...
  Unit style    : lj
  Current step  : 0
  Time step     : 0.005
Per MPI rank memory allocation (min/avg/max) = 8306 | 8306 | 8306 Mbytes
Step Temp E_pair E_mol TotEng Press 
       0         1.44   -6.7733681            0   -4.6133682   -5.0196693 
     100   0.75918554   -5.7610896            0   -4.6223114   0.19195085 
[rank 3, worker 0] busy ratio: 0.995619
[rank 3, worker 1] busy ratio: 0.865279
[rank 3, worker 2] busy ratio: 0.881161
[rank 3, worker 3] busy ratio: 0.861126
[rank 3, worker 4] busy ratio: 0.831233
[rank 3, worker 5] busy ratio: 0.811713
[rank 3, worker 6] busy ratio: 0.811713
[rank 3, worker 7] busy ratio: 0.879584
[rank 3, worker 8] busy ratio: 0.873632
[rank 3, worker 9] busy ratio: 0.881356
[rank 3, worker 10] busy ratio: 0.806240
[rank 3, worker 11] busy ratio: 0.806240
[rank 3, worker 12] busy ratio: 0.810071
[rank 3, worker 13] busy ratio: 0.807882
[rank 3, worker 14] busy ratio: 0.889010
[rank 3, worker 15] busy ratio: 0.878556
[rank 3, worker 16] busy ratio: 0.879716
[rank 3, worker 17] busy ratio: 0.879716
[rank 1, worker 0] busy ratio: 0.997812
[rank 1, worker 1] busy ratio: 0.865827
[rank 1, worker 2] busy ratio: 0.868781
[rank 1, worker 3] busy ratio: 0.871444
[rank 1, worker 4] busy ratio: 0.825397
[rank 1, worker 5] busy ratio: 0.821214
[rank 1, worker 6] busy ratio: 0.824945
[rank 1, worker 7] busy ratio: 0.870968
[rank 1, worker 8] busy ratio: 0.870897
[rank 0, worker 0] busy ratio: 0.990695
[rank 0, worker 1] busy ratio: 0.864732
[rank 0, worker 2] busy ratio: 0.857299
[rank 0, worker 3] busy ratio: 0.857221
[rank 0, worker 4] busy ratio: 0.815646
[rank 3, worker 18] busy ratio: 0.807440
[rank 3, worker 19] busy ratio: 0.804598
[rank 1, worker 9] busy ratio: 0.870897
[rank 1, worker 10] busy ratio: 0.818480
[rank 1, worker 11] busy ratio: 0.820667
[rank 1, worker 12] busy ratio: 0.820022
[rank 1, worker 13] busy ratio: 0.818928
[rank 1, worker 14] busy ratio: 0.866448
[rank 1, worker 15] busy ratio: 0.877529
[rank 1, worker 16] busy ratio: 0.875821
[rank 1, worker 17] busy ratio: 0.879103
[rank 1, worker 18] busy ratio: 0.816193
[rank 1, worker 19] busy ratio: 0.821116
[rank 1, worker 20] busy ratio: 0.818281
[rank 1, worker 21] busy ratio: 0.879169
[rank 1, worker 22] busy ratio: 0.882514
[rank 1, worker 23] busy ratio: 0.880744
[rank 1, worker 24] busy ratio: 0.819475
[rank 1, worker 25] busy ratio: 0.814551
[rank 1, worker 26] busy ratio: 0.822210
[rank 1, worker 27] busy ratio: 0.820569
[rank 1, worker 28] busy ratio: 0.713268
[rank 1, worker 29] busy ratio: 0.700602
[rank 1, worker 30] busy ratio: 0.715928
[rank 1, worker 31] busy ratio: 0.696937
[rank 1, worker 32] busy ratio: 0.696389
[rank 3, worker 20] busy ratio: 0.800328
[rank 3, worker 21] busy ratio: 0.882449
[rank 3, worker 22] busy ratio: 0.870968
[rank 1, worker 33] busy ratio: 0.698413
[rank 1, worker 34] busy ratio: 0.712958
[rank 0, worker 5] busy ratio: 0.812910
[rank 0, worker 6] busy ratio: 0.810826
[rank 0, worker 7] busy ratio: 0.864407
[rank 0, worker 8] busy ratio: 0.860503
[rank 0, worker 9] busy ratio: 0.860656
[rank 0, worker 10] busy ratio: 0.800766
[rank 0, worker 11] busy ratio: 0.810619
[rank 0, worker 12] busy ratio: 0.813457
[rank 3, worker 23] busy ratio: 0.875888
[rank 3, worker 24] busy ratio: 0.806998
[rank 1, worker 35] busy ratio: 0.711318
[rank 1, worker 36] busy ratio: 0.706236
[rank 0, worker 13] busy ratio: 0.803503
[rank 0, worker 14] busy ratio: 0.868709
[rank 3, worker 25] busy ratio: 0.806787
[rank 3, worker 26] busy ratio: 0.801093
[rank 3, worker 27] busy ratio: 0.802516
[rank 1, worker 37] busy ratio: 0.706944
[rank 1, worker 38] busy ratio: 0.705850
[rank 0, worker 15] busy ratio: 0.846743
[rank 0, worker 16] busy ratio: 0.867687
[rank 3, worker 28] busy ratio: 0.800328
[rank 3, worker 29] busy ratio: 0.786105
[rank 1, worker 39] busy ratio: 0.705142
[rank 1, worker 40] busy ratio: 0.708584
[rank 0, worker 17] busy ratio: 0.861050
[rank 0, worker 18] busy ratio: 0.814004
[rank 3, worker 30] busy ratio: 0.793217
[rank 3, worker 31] busy ratio: 0.794858
[rank 3, worker 32] busy ratio: 0.794198
[rank 1, worker 41] busy ratio: 0.706397
[rank 1, worker 42] busy ratio: 0.691466
[rank 1, worker 43] busy ratio: 0.705689
[rank 1, worker 44] busy ratio: 0.686543
[rank 1, worker 45] busy ratio: 0.693989
[rank 0, worker 19] busy ratio: 0.805799
[rank 0, worker 20] busy ratio: 0.798687
[rank 3, worker 33] busy ratio: 0.791461
[rank 3, worker 34] busy ratio: 0.783917
[rank 1, worker 46] busy ratio: 0.714442
[rank 1, worker 47] busy ratio: 0.695295
[rank 0, worker 21] busy ratio: 0.862691
[rank 0, worker 22] busy ratio: 0.865427
[rank 3, worker 35] busy ratio: 0.785988
[rank 3, worker 36] busy ratio: 0.793103
[rank 1, worker 48] busy ratio: 0.710224
[rank 1, worker 49] busy ratio: 0.684354
[rank 1, worker 50] busy ratio: 0.732495
[rank 0, worker 23] busy ratio: 0.861050
[rank 0, worker 24] busy ratio: 0.807440
[rank 0, worker 25] busy ratio: 0.814004
[rank 3, worker 37] busy ratio: 0.801531
[rank 3, worker 38] busy ratio: 0.779114
[rank 1, worker 51] busy ratio: 0.691845
[rank 1, worker 52] busy ratio: 0.702407
[rank 0, worker 26] busy ratio: 0.806240
[rank 0, worker 27] busy ratio: 0.801422
[rank 0, worker 28] busy ratio: 0.751781
[rank 0, worker 29] busy ratio: 0.714129
[rank 3, worker 39] busy ratio: 0.792123
[rank 3, worker 40] busy ratio: 0.788956
[rank 3, worker 41] busy ratio: 0.796388
[rank 1, worker 53] busy ratio: 0.722101
[rank 1, worker 54] busy ratio: 0.700929
[rank 0, worker 30] busy ratio: 0.748768
[rank 0, worker 31] busy ratio: 0.727571
[rank 3, worker 42] busy ratio: 0.795293
[rank 3, worker 43] busy ratio: 0.797593
[rank 1, worker 55] busy ratio: 0.566338
[rank 2, worker 0] busy ratio: 0.994530
[rank 2, worker 1] busy ratio: 0.863164
[rank 2, worker 2] busy ratio: 0.863313
[rank 2, worker 3] busy ratio: 0.862842
[rank 2, worker 4] busy ratio: 0.822307
[rank 2, worker 5] busy ratio: 0.823851
[rank 2, worker 6] busy ratio: 0.817287
[rank 2, worker 7] busy ratio: 0.857846
[rank 2, worker 8] busy ratio: 0.872131
[rank 0, worker 32] busy ratio: 0.721007
[rank 0, worker 33] busy ratio: 0.748359
[rank 3, worker 44] busy ratio: 0.783251
[rank 3, worker 45] busy ratio: 0.799672
[rank 0, worker 34] busy ratio: 0.733042
[rank 0, worker 35] busy ratio: 0.736871
[rank 0, worker 36] busy ratio: 0.762035
[rank 3, worker 46] busy ratio: 0.799124
[rank 3, worker 47] busy ratio: 0.797046
[rank 2, worker 9] busy ratio: 0.871585
[rank 2, worker 10] busy ratio: 0.813559
[rank 2, worker 11] busy ratio: 0.813559
[rank 2, worker 12] busy ratio: 0.813559
[rank 2, worker 13] busy ratio: 0.819027
[rank 2, worker 14] busy ratio: 0.873155
[rank 2, worker 15] busy ratio: 0.872538
[rank 2, worker 16] busy ratio: 0.880809
[rank 2, worker 17] busy ratio: 0.874248
[rank 2, worker 18] busy ratio: 0.818381
[rank 2, worker 19] busy ratio: 0.820569
[rank 2, worker 20] busy ratio: 0.820022
[rank 2, worker 21] busy ratio: 0.882449
[rank 2, worker 22] busy ratio: 0.878622
[rank 2, worker 23] busy ratio: 0.863313
[rank 2, worker 24] busy ratio: 0.817834
[rank 2, worker 25] busy ratio: 0.813013
[rank 2, worker 26] busy ratio: 0.814004
[rank 2, worker 27] busy ratio: 0.817933
[rank 2, worker 28] busy ratio: 0.718904
[rank 2, worker 29] busy ratio: 0.708812
[rank 2, worker 30] busy ratio: 0.722253
[rank 2, worker 31] busy ratio: 0.711160
[rank 2, worker 32] busy ratio: 0.708197
[rank 2, worker 33] busy ratio: 0.722951
[rank 2, worker 34] busy ratio: 0.703663
[rank 2, worker 35] busy ratio: 0.715301
[rank 0, worker 37] busy ratio: 0.716630
[rank 0, worker 38] busy ratio: 0.760394
[rank 3, worker 48] busy ratio: 0.798687
[rank 3, worker 49] busy ratio: 0.794198
[rank 3, worker 50] busy ratio: 0.795840
[rank 2, worker 36] busy ratio: 0.743576
[rank 2, worker 37] busy ratio: 0.698196
[rank 2, worker 38] busy ratio: 0.729508
[rank 0, worker 39] busy ratio: 0.717177
[rank 0, worker 40] busy ratio: 0.736871
[rank 3, worker 51] busy ratio: 0.793330
[rank 3, worker 52] busy ratio: 0.788177
[rank 2, worker 39] busy ratio: 0.695295
[rank 2, worker 40] busy ratio: 0.712568
[rank 0, worker 41] busy ratio: 0.758073
[rank 0, worker 42] busy ratio: 0.727571
[rank 3, worker 53] busy ratio: 0.790367
[rank 3, worker 54] busy ratio: 0.785558
[rank 2, worker 41] busy ratio: 0.747403
[rank 2, worker 42] busy ratio: 0.706944
[rank 0, worker 43] busy ratio: 0.741247
[rank 0, worker 44] busy ratio: 0.714442
[rank 3, worker 55] busy ratio: 0.733443
[rank 2, worker 43] busy ratio: 0.731547
[rank 2, worker 44] busy ratio: 0.707170
[rank 2, worker 45] busy ratio: 0.698196
[rank 2, worker 46] busy ratio: 0.699289
[rank 2, worker 47] busy ratio: 0.748906
[rank 0, worker 45] busy ratio: 0.720612
[rank 0, worker 46] busy ratio: 0.741247
[rank 2, worker 48] busy ratio: 0.698742
[rank 2, worker 49] busy ratio: 0.763259
[rank 2, worker 50] busy ratio: 0.701860
[rank 0, worker 47] busy ratio: 0.753964
[rank 0, worker 48] busy ratio: 0.725533
[rank 0, worker 49] busy ratio: 0.766284
[rank 0, worker 50] busy ratio: 0.699507
[rank 0, worker 51] busy ratio: 0.729907
[rank 2, worker 51] busy ratio: 0.736871
[rank 2, worker 52] busy ratio: 0.714598
[rank 0, worker 52] busy ratio: 0.720460
[rank 0, worker 53] busy ratio: 0.725233
[rank 2, worker 53] busy ratio: 0.724440
[rank 2, worker 54] busy ratio: 0.734136
[rank 0, worker 54] busy ratio: 0.742888
[rank 0, worker 55] busy ratio: 0.694581
[rank 2, worker 55] busy ratio: 0.619387
Loop time of 18.2957 on 224 procs for 100 steps with 16384000 atoms

Performance: 2361.216 tau/day, 5.466 timesteps/s
4378.1% CPU use with 4 MPI tasks x 56 OpenMP threads

MPI task timing breakdown:
Section |  min time  |  avg time  |  max time  |%varavg| %total
---------------------------------------------------------------
Pair    | 12.326     | 12.843     | 13.161     |   9.7 | 70.20
Neigh   | 1.8303     | 1.9272     | 2.1316     |   8.8 | 10.53
Comm    | 1.852      | 2.0539     | 2.3376     |  14.3 | 11.23
Output  | 0.0011548  | 0.049487   | 0.090611   |  16.6 |  0.27
Modify  | 0.49923    | 0.53478    | 0.61085    |   6.1 |  2.92
Other   |            | 0.8873     |            |       |  4.85

Nlocal:    4.096e+06 ave 4.09657e+06 max 4.09544e+06 min
Histogram: 1 0 0 1 0 0 1 0 0 1
Nghost:    458178 ave 458566 max 457741 min
Histogram: 1 0 0 0 1 0 0 1 0 1
Neighs:    0 ave 0 max 0 min
Histogram: 4 0 0 0 0 0 0 0 0 0
FullNghs:  3.07645e+08 ave 3.07688e+08 max 3.07588e+08 min
Histogram: 1 0 0 0 1 0 0 0 1 1

Total # of neighbors = 1230581798
Ave neighs/atom = 75.1088
Neighbor list builds = 5
Dangerous builds not checked
Total wall time: 0:00:28
