LAMMPS (7 Aug 2019)
KOKKOS mode is enabled (../kokkos.cpp:85)
  will use up to 0 GPU(s) per node
  using 56 OpenMP thread(s) per MPI task
Lattice spacing in x,y,z = 1.6796 1.6796 1.6796
Created orthogonal box = (0 0 0) to (335.919 335.919 335.919)
  1 by 2 by 2 MPI processor grid
Created 32000000 atoms
  create_atoms CPU = 10.1788 secs
Neighbor list info ...
  update every 20 steps, delay 0 steps, check no
  max neighbors/atom: 2000, page size: 100000
  master list distance cutoff = 2.8
  ghost atom cutoff = 2.8
  binsize = 1.4, bins = 240 240 240
  1 neighbor lists, perpetual/occasional/extra = 1 0 0
  (1) pair lj/cut/kk, perpetual
      attributes: full, newton off, kokkos_device
      pair build: full/bin/kk/device
      stencil: full/bin/3d
      bin: kk/device
Setting up Verlet run ...
  Unit style    : lj
  Current step  : 0
  Time step     : 0.005
Per MPI rank memory allocation (min/avg/max) = 1.584e+04 | 1.584e+04 | 1.584e+04 Mbytes
Step Temp E_pair E_mol TotEng Press 
       0         1.44   -6.7733681            0   -4.6133681   -5.0196693 
     100   0.75941602   -5.7614399            0   -4.6223159   0.19027589 
[rank 0, worker 0] busy ratio: 0.980278
[rank 0, worker 1] busy ratio: 0.742632
[rank 0, worker 2] busy ratio: 0.738404
[rank 0, worker 3] busy ratio: 0.744957
[rank 0, worker 4] busy ratio: 0.751970
[rank 0, worker 5] busy ratio: 0.744262
[rank 0, worker 6] busy ratio: 0.745016
[rank 0, worker 7] busy ratio: 0.750290
[rank 0, worker 8] busy ratio: 0.752319
[rank 0, worker 9] busy ratio: 0.746521
[rank 0, worker 10] busy ratio: 0.749420
[rank 0, worker 11] busy ratio: 0.748667
[rank 0, worker 12] busy ratio: 0.745421
[rank 0, worker 13] busy ratio: 0.748493
[rank 0, worker 14] busy ratio: 0.751798
[rank 0, worker 15] busy ratio: 0.745075
[rank 3, worker 0] busy ratio: 0.969866
[rank 3, worker 1] busy ratio: 0.795032
[rank 3, worker 2] busy ratio: 0.791415
[rank 3, worker 3] busy ratio: 0.792672
[rank 3, worker 4] busy ratio: 0.760148
[rank 3, worker 5] busy ratio: 0.758173
[rank 3, worker 6] busy ratio: 0.761772
[rank 3, worker 7] busy ratio: 0.799582
[rank 3, worker 8] busy ratio: 0.793231
[rank 3, worker 9] busy ratio: 0.792952
[rank 0, worker 16] busy ratio: 0.749189
[rank 0, worker 17] busy ratio: 0.747566
[rank 0, worker 18] busy ratio: 0.745826
[rank 0, worker 19] busy ratio: 0.745885
[rank 0, worker 20] busy ratio: 0.743566
[rank 0, worker 21] busy ratio: 0.745653
[rank 0, worker 22] busy ratio: 0.740724
[rank 0, worker 23] busy ratio: 0.744725
[rank 0, worker 24] busy ratio: 0.746407
[rank 0, worker 25] busy ratio: 0.743970
[rank 0, worker 26] busy ratio: 0.751681
[rank 0, worker 27] busy ratio: 0.749652
[rank 0, worker 28] busy ratio: 0.735792
[rank 0, worker 29] busy ratio: 0.737306
[rank 3, worker 10] busy ratio: 0.750696
[rank 3, worker 11] busy ratio: 0.760204
[rank 3, worker 12] busy ratio: 0.761187
[rank 3, worker 13] busy ratio: 0.770693
[rank 3, worker 14] busy ratio: 0.796335
[rank 3, worker 15] busy ratio: 0.797078
[rank 3, worker 16] busy ratio: 0.794479
[rank 3, worker 17] busy ratio: 0.796429
[rank 3, worker 18] busy ratio: 0.772727
[rank 3, worker 19] busy ratio: 0.766466
[rank 3, worker 20] busy ratio: 0.756550
[rank 3, worker 21] busy ratio: 0.798099
[rank 3, worker 22] busy ratio: 0.802366
[rank 3, worker 23] busy ratio: 0.795086
[rank 3, worker 24] busy ratio: 0.770819
[rank 3, worker 25] busy ratio: 0.756030
[rank 3, worker 26] busy ratio: 0.764201
[rank 3, worker 27] busy ratio: 0.770766
[rank 3, worker 28] busy ratio: 0.664811
[rank 3, worker 29] busy ratio: 0.670302
[rank 3, worker 30] busy ratio: 0.659861
[rank 3, worker 31] busy ratio: 0.684076
[rank 0, worker 30] busy ratio: 0.736085
[rank 0, worker 31] busy ratio: 0.745535
[rank 0, worker 32] busy ratio: 0.727167
[rank 0, worker 33] busy ratio: 0.752551
[rank 0, worker 34] busy ratio: 0.724090
[rank 0, worker 35] busy ratio: 0.745189
[rank 0, worker 36] busy ratio: 0.750811
[rank 0, worker 37] busy ratio: 0.734121
[rank 0, worker 38] busy ratio: 0.729485
[rank 0, worker 39] busy ratio: 0.719889
[rank 0, worker 40] busy ratio: 0.743102
[rank 0, worker 41] busy ratio: 0.713524
[rank 0, worker 42] busy ratio: 0.729360
[rank 0, worker 43] busy ratio: 0.735670
[rank 0, worker 44] busy ratio: 0.735328
[rank 0, worker 45] busy ratio: 0.735451
[rank 0, worker 46] busy ratio: 0.731215
[rank 0, worker 47] busy ratio: 0.727505
[rank 0, worker 48] busy ratio: 0.745480
[rank 0, worker 49] busy ratio: 0.747044
[rank 2, worker 0] busy ratio: 0.951067
[rank 2, worker 1] busy ratio: 0.878739
[rank 2, worker 2] busy ratio: 0.881521
[rank 2, worker 3] busy ratio: 0.878739
[rank 2, worker 4] busy ratio: 0.798421
[rank 2, worker 5] busy ratio: 0.778552
[rank 2, worker 6] busy ratio: 0.782649
[rank 2, worker 7] busy ratio: 0.881289
[rank 2, worker 8] busy ratio: 0.880389
[rank 2, worker 9] busy ratio: 0.879694
[rank 2, worker 10] busy ratio: 0.778010
[rank 2, worker 11] busy ratio: 0.797310
[rank 2, worker 12] busy ratio: 0.766929
[rank 2, worker 13] busy ratio: 0.773939
[rank 2, worker 14] busy ratio: 0.885489
[rank 2, worker 15] busy ratio: 0.884071
[rank 2, worker 16] busy ratio: 0.885953
[rank 2, worker 17] busy ratio: 0.892675
[rank 2, worker 18] busy ratio: 0.755798
[rank 2, worker 19] busy ratio: 0.762115
[rank 2, worker 20] busy ratio: 0.805240
[rank 2, worker 21] busy ratio: 0.885052
[rank 2, worker 22] busy ratio: 0.887781
[rank 2, worker 23] busy ratio: 0.888992
[rank 2, worker 24] busy ratio: 0.775278
[rank 2, worker 25] busy ratio: 0.760900
[rank 2, worker 26] busy ratio: 0.790169
[rank 2, worker 27] busy ratio: 0.753942
[rank 2, worker 28] busy ratio: 0.634316
[rank 2, worker 29] busy ratio: 0.630334
[rank 2, worker 30] busy ratio: 0.613030
[rank 2, worker 31] busy ratio: 0.643636
[rank 2, worker 32] busy ratio: 0.623696
[rank 2, worker 33] busy ratio: 0.684906
[rank 2, worker 34] busy ratio: 0.640306
[rank 2, worker 35] busy ratio: 0.620682
[rank 2, worker 36] busy ratio: 0.638599
[rank 2, worker 37] busy ratio: 0.629432
[rank 2, worker 38] busy ratio: 0.630969
[rank 2, worker 39] busy ratio: 0.639397
[rank 2, worker 40] busy ratio: 0.657699
[rank 2, worker 41] busy ratio: 0.644795
[rank 2, worker 42] busy ratio: 0.632800
[rank 2, worker 43] busy ratio: 0.647509
[rank 2, worker 44] busy ratio: 0.615581
[rank 2, worker 45] busy ratio: 0.636364
[rank 3, worker 32] busy ratio: 0.674478
[rank 3, worker 33] busy ratio: 0.663729
[rank 3, worker 34] busy ratio: 0.693878
[rank 3, worker 35] busy ratio: 0.684369
[rank 3, worker 36] busy ratio: 0.667981
[rank 3, worker 37] busy ratio: 0.665894
[rank 0, worker 50] busy ratio: 0.724490
[rank 0, worker 51] busy ratio: 0.734400
[rank 2, worker 46] busy ratio: 0.641549
[rank 2, worker 47] busy ratio: 0.632885
[rank 2, worker 48] busy ratio: 0.644481
[rank 2, worker 49] busy ratio: 0.652375
[rank 2, worker 50] busy ratio: 0.631433
[rank 2, worker 51] busy ratio: 0.619092
[rank 2, worker 52] busy ratio: 0.628187
[rank 2, worker 53] busy ratio: 0.618738
[rank 2, worker 54] busy ratio: 0.619754
[rank 2, worker 55] busy ratio: 0.673157
[rank 3, worker 38] busy ratio: 0.695501
[rank 3, worker 39] busy ratio: 0.660482
[rank 0, worker 52] busy ratio: 0.742407
[rank 0, worker 53] busy ratio: 0.740552
[rank 0, worker 54] busy ratio: 0.724026
[rank 1, worker 0] busy ratio: 0.950858
[rank 1, worker 1] busy ratio: 0.868506
[rank 1, worker 2] busy ratio: 0.870130
[rank 1, worker 3] busy ratio: 0.875464
[rank 1, worker 4] busy ratio: 0.765280
[rank 1, worker 5] busy ratio: 0.733055
[rank 1, worker 6] busy ratio: 0.740775
[rank 1, worker 7] busy ratio: 0.873609
[rank 1, worker 8] busy ratio: 0.874333
[rank 1, worker 9] busy ratio: 0.872276
[rank 1, worker 10] busy ratio: 0.750870
[rank 1, worker 11] busy ratio: 0.743447
[rank 1, worker 12] busy ratio: 0.751334
[rank 1, worker 13] busy ratio: 0.757829
[rank 1, worker 14] busy ratio: 0.872681
[rank 1, worker 15] busy ratio: 0.877319
[rank 1, worker 16] busy ratio: 0.876855
[rank 1, worker 17] busy ratio: 0.880130
[rank 1, worker 18] busy ratio: 0.752551
[rank 1, worker 19] busy ratio: 0.743447
[rank 1, worker 20] busy ratio: 0.733828
[rank 1, worker 21] busy ratio: 0.877811
[rank 1, worker 22] busy ratio: 0.878507
[rank 1, worker 23] busy ratio: 0.873609
[rank 1, worker 24] busy ratio: 0.744725
[rank 1, worker 25] busy ratio: 0.723098
[rank 1, worker 26] busy ratio: 0.740724
[rank 1, worker 27] busy ratio: 0.737880
[rank 1, worker 28] busy ratio: 0.648956
[rank 1, worker 29] busy ratio: 0.616883
[rank 1, worker 30] busy ratio: 0.624217
[rank 1, worker 31] busy ratio: 0.658163
[rank 1, worker 32] busy ratio: 0.610248
[rank 1, worker 33] busy ratio: 0.636743
[rank 1, worker 34] busy ratio: 0.623232
[rank 1, worker 35] busy ratio: 0.634129
[rank 1, worker 36] busy ratio: 0.626160
[rank 1, worker 37] busy ratio: 0.633434
[rank 1, worker 38] busy ratio: 0.663729
[rank 1, worker 39] busy ratio: 0.616508
[rank 1, worker 40] busy ratio: 0.643950
[rank 1, worker 41] busy ratio: 0.632653
[rank 1, worker 42] busy ratio: 0.623377
[rank 1, worker 43] busy ratio: 0.620538
[rank 3, worker 40] busy ratio: 0.680501
[rank 3, worker 41] busy ratio: 0.659634
[rank 0, worker 55] busy ratio: 0.754463
[rank 3, worker 42] busy ratio: 0.663185
[rank 3, worker 43] busy ratio: 0.669218
Loop time of 43.149 on 224 procs for 100 steps with 32000000 atoms

[rank 3, worker 44] busy ratio: 0.664115
[rank 3, worker 45] busy ratio: 0.671458
Performance: 1001.182 tau/day, 2.318 timesteps/s
[rank 3, worker 46] busy ratio: 0.670223
[rank 3, worker 47] busy ratio: 0.683979
[rank 3, worker 48] busy ratio: 0.684747
4058.1% CPU use with 4 MPI tasks x 56 OpenMP threads
[rank 3, worker 49] busy ratio: 0.670146
[rank 3, worker 50] busy ratio: 0.678340

MPI task timing breakdown:
Section |  min time  |  avg time  |  max time  |%varavg| %total
---------------------------------------------------------------
[rank 1, worker 44] busy ratio: 0.626710
[rank 1, worker 45] busy ratio: 0.640306
[rank 1, worker 46] busy ratio: 0.625319
[rank 1, worker 47] busy ratio: 0.629174
[rank 1, worker 48] busy ratio: 0.657468
[rank 1, worker 49] busy ratio: 0.621289
[rank 1, worker 50] busy ratio: 0.654836
[rank 1, worker 51] busy ratio: 0.656156
[rank 1, worker 52] busy ratio: 0.629174
[rank 1, worker 53] busy ratio: 0.616883
[rank 1, worker 54] busy ratio: 0.627697
[rank 1, worker 55] busy ratio: 0.682135
[rank 3, worker 51] busy ratio: 0.694734
[rank 3, worker 52] busy ratio: 0.679342
Pair    | 18.698     | 19.397     | 20.498     |  15.6 | 44.95
[rank 3, worker 53] busy ratio: 0.660793
[rank 3, worker 54] busy ratio: 0.668831
[rank 3, worker 55] busy ratio: 0.704709
Neigh   | 3.8114     | 3.8263     | 3.8472     |   0.7 |  8.87
Comm    | 4.6315     | 9.5961     | 13.4       | 123.4 | 22.24
Output  | 0.002215   | 0.04658    | 0.084222   |  13.6 |  0.11
Modify  | 1.1097     | 1.3223     | 1.481      |  12.2 |  3.06
Other   |            | 8.961      |            |       | 20.77

Nlocal:    8e+06 ave 8.00017e+06 max 7.99976e+06 min
Histogram: 1 0 0 0 0 0 2 0 0 1
Nghost:    711029 ave 711274 max 710914 min
Histogram: 2 0 1 0 0 0 0 0 0 1
Neighs:    0 ave 0 max 0 min
Histogram: 4 0 0 0 0 0 0 0 0 0
FullNghs:  6.00869e+08 ave 6.00884e+08 max 6.0085e+08 min
Histogram: 1 0 0 0 0 1 1 0 0 1

Total # of neighbors = 2.40348e+09
Ave neighs/atom = 75.1087
Neighbor list builds = 5
Dangerous builds not checked
Total wall time: 0:00:57
