LAMMPS (7 Aug 2019)
KOKKOS mode is enabled (../kokkos.cpp:85)
  will use up to 0 GPU(s) per node
  using 56 OpenMP thread(s) per MPI task
Lattice spacing in x,y,z = 1.6796 1.6796 1.6796
Created orthogonal box = (0 0 0) to (134.368 134.368 134.368)
  1 by 2 by 2 MPI processor grid
Created 2048000 atoms
  create_atoms CPU = 1.51294 secs
Neighbor list info ...
  update every 20 steps, delay 0 steps, check no
  max neighbors/atom: 2000, page size: 100000
  master list distance cutoff = 2.8
  ghost atom cutoff = 2.8
  binsize = 1.4, bins = 96 96 96
  1 neighbor lists, perpetual/occasional/extra = 1 0 0
  (1) pair lj/cut/kk, perpetual
      attributes: full, newton off, kokkos_device
      pair build: full/bin/kk/device
      stencil: full/bin/3d
      bin: kk/device
Setting up Verlet run ...
  Unit style    : lj
  Current step  : 0
  Time step     : 0.005
Per MPI rank memory allocation (min/avg/max) = 1166 | 1166 | 1166 Mbytes
Step Temp E_pair E_mol TotEng Press 
       0         1.44   -6.7733681            0   -4.6133691   -5.0196699 
     100   0.75921977   -5.7611315            0   -4.6223024   0.19208802 
[rank 3, worker 0] busy ratio: 0.982927
[rank 3, worker 1] busy ratio: 0.882927
[rank 3, worker 2] busy ratio: 0.892421
[rank 3, worker 3] busy ratio: 0.895377
[rank 3, worker 4] busy ratio: 0.900243
[rank 3, worker 5] busy ratio: 0.887805
[rank 3, worker 6] busy ratio: 0.887805
[rank 3, worker 7] busy ratio: 0.895377
[rank 0, worker 0] busy ratio: 0.982968
[rank 0, worker 1] busy ratio: 0.895377
[rank 0, worker 2] busy ratio: 0.902200
[rank 0, worker 3] busy ratio: 0.900000
[rank 0, worker 4] busy ratio: 0.899510
[rank 3, worker 8] busy ratio: 0.900000
[rank 3, worker 9] busy ratio: 0.892683
[rank 3, worker 10] busy ratio: 0.888350
[rank 3, worker 11] busy ratio: 0.890244
[rank 3, worker 12] busy ratio: 0.875610
[rank 3, worker 13] busy ratio: 0.885366
[rank 3, worker 14] busy ratio: 0.892944
[rank 3, worker 15] busy ratio: 0.894866
[rank 3, worker 16] busy ratio: 0.888078
[rank 3, worker 17] busy ratio: 0.885086
[rank 1, worker 0] busy ratio: 0.980583
[rank 1, worker 1] busy ratio: 0.900243
[rank 1, worker 2] busy ratio: 0.904645
[rank 1, worker 3] busy ratio: 0.917275
[rank 1, worker 4] busy ratio: 0.880779
[rank 1, worker 5] busy ratio: 0.855746
[rank 1, worker 6] busy ratio: 0.860976
[rank 1, worker 7] busy ratio: 0.921569
[rank 1, worker 8] busy ratio: 0.911980
[rank 2, worker 0] busy ratio: 0.982968
[rank 2, worker 1] busy ratio: 0.897561
[rank 2, worker 2] busy ratio: 0.888078
[rank 2, worker 3] busy ratio: 0.892944
[rank 2, worker 4] busy ratio: 0.888078
[rank 2, worker 5] busy ratio: 0.878345
[rank 2, worker 6] busy ratio: 0.883212
[rank 2, worker 7] busy ratio: 0.887805
[rank 2, worker 8] busy ratio: 0.892683
[rank 2, worker 9] busy ratio: 0.888078
[rank 2, worker 10] busy ratio: 0.887805
[rank 0, worker 5] busy ratio: 0.877451
[rank 0, worker 6] busy ratio: 0.880488
[rank 0, worker 7] busy ratio: 0.894866
[rank 0, worker 8] busy ratio: 0.902676
[rank 0, worker 9] busy ratio: 0.904878
[rank 0, worker 10] busy ratio: 0.882927
[rank 0, worker 11] busy ratio: 0.885645
[rank 0, worker 12] busy ratio: 0.872549
[rank 0, worker 13] busy ratio: 0.870732
[rank 3, worker 18] busy ratio: 0.873479
[rank 3, worker 19] busy ratio: 0.865854
[rank 3, worker 20] busy ratio: 0.877751
[rank 1, worker 9] busy ratio: 0.911980
[rank 1, worker 10] busy ratio: 0.855746
[rank 1, worker 11] busy ratio: 0.860976
[rank 1, worker 12] busy ratio: 0.863747
[rank 1, worker 13] busy ratio: 0.858537
[rank 1, worker 14] busy ratio: 0.909756
[rank 1, worker 15] busy ratio: 0.909976
[rank 1, worker 16] busy ratio: 0.917275
[rank 1, worker 17] busy ratio: 0.919315
[rank 1, worker 18] busy ratio: 0.853659
[rank 1, worker 19] busy ratio: 0.846341
[rank 1, worker 20] busy ratio: 0.850856
[rank 1, worker 21] busy ratio: 0.897311
[rank 1, worker 22] busy ratio: 0.883212
[rank 1, worker 23] busy ratio: 0.895122
[rank 1, worker 24] busy ratio: 0.856448
[rank 1, worker 25] busy ratio: 0.858191
[rank 1, worker 26] busy ratio: 0.851220
[rank 1, worker 27] busy ratio: 0.853659
[rank 1, worker 28] busy ratio: 0.858537
[rank 2, worker 11] busy ratio: 0.890244
[rank 2, worker 12] busy ratio: 0.885645
[rank 2, worker 13] busy ratio: 0.887805
[rank 2, worker 14] busy ratio: 0.892944
[rank 2, worker 15] busy ratio: 0.890244
[rank 2, worker 16] busy ratio: 0.895122
[rank 2, worker 17] busy ratio: 0.885645
[rank 2, worker 18] busy ratio: 0.876214
[rank 2, worker 19] busy ratio: 0.878049
[rank 2, worker 20] busy ratio: 0.873171
[rank 2, worker 21] busy ratio: 0.885645
[rank 2, worker 22] busy ratio: 0.888078
[rank 2, worker 23] busy ratio: 0.892944
[rank 2, worker 24] busy ratio: 0.868613
[rank 2, worker 25] busy ratio: 0.870732
[rank 2, worker 26] busy ratio: 0.870732
[rank 2, worker 27] busy ratio: 0.868613
[rank 2, worker 28] busy ratio: 0.870416
[rank 2, worker 29] busy ratio: 0.863747
[rank 2, worker 30] busy ratio: 0.863415
[rank 2, worker 31] busy ratio: 0.860976
[rank 2, worker 32] busy ratio: 0.868293
[rank 2, worker 33] busy ratio: 0.871046
[rank 0, worker 14] busy ratio: 0.897561
[rank 0, worker 15] busy ratio: 0.892421
[rank 3, worker 21] busy ratio: 0.887805
[rank 3, worker 22] busy ratio: 0.880779
[rank 1, worker 29] busy ratio: 0.854015
[rank 1, worker 30] busy ratio: 0.846341
[rank 1, worker 31] busy ratio: 0.848780
[rank 2, worker 34] busy ratio: 0.863415
[rank 2, worker 35] busy ratio: 0.856098
[rank 0, worker 16] busy ratio: 0.897561
[rank 0, worker 17] busy ratio: 0.889976
[rank 3, worker 23] busy ratio: 0.878345
[rank 3, worker 24] busy ratio: 0.860976
[rank 3, worker 25] busy ratio: 0.858881
[rank 1, worker 32] busy ratio: 0.850490
[rank 1, worker 33] busy ratio: 0.848411
[rank 2, worker 36] busy ratio: 0.858537
[rank 2, worker 37] busy ratio: 0.843902
[rank 0, worker 18] busy ratio: 0.868613
[rank 0, worker 19] busy ratio: 0.853659
[rank 3, worker 26] busy ratio: 0.851220
[rank 3, worker 27] busy ratio: 0.866180
[rank 1, worker 34] busy ratio: 0.843521
[rank 1, worker 35] busy ratio: 0.848780
[rank 2, worker 38] busy ratio: 0.860976
[rank 2, worker 39] busy ratio: 0.858191
[rank 0, worker 20] busy ratio: 0.858537
[rank 0, worker 21] busy ratio: 0.885366
[rank 3, worker 28] busy ratio: 0.875610
[rank 3, worker 29] busy ratio: 0.868613
[rank 1, worker 36] busy ratio: 0.845966
[rank 1, worker 37] busy ratio: 0.839024
[rank 2, worker 40] busy ratio: 0.858537
[rank 2, worker 41] busy ratio: 0.851942
[rank 0, worker 22] busy ratio: 0.885086
[rank 0, worker 23] busy ratio: 0.887531
[rank 3, worker 30] busy ratio: 0.865854
[rank 3, worker 31] busy ratio: 0.868293
[rank 3, worker 32] busy ratio: 0.867971
[rank 1, worker 38] busy ratio: 0.841463
[rank 1, worker 39] busy ratio: 0.839416
[rank 1, worker 40] busy ratio: 0.839416
[rank 1, worker 41] busy ratio: 0.846715
[rank 2, worker 42] busy ratio: 0.841849
[rank 2, worker 43] busy ratio: 0.839024
[rank 2, worker 44] busy ratio: 0.851220
[rank 2, worker 45] busy ratio: 0.836983
[rank 0, worker 24] busy ratio: 0.865854
[rank 0, worker 25] busy ratio: 0.863747
[rank 0, worker 26] busy ratio: 0.868293
[rank 3, worker 33] busy ratio: 0.865854
[rank 3, worker 34] busy ratio: 0.860636
[rank 3, worker 35] busy ratio: 0.858537
[rank 1, worker 42] busy ratio: 0.839416
[rank 1, worker 43] busy ratio: 0.843902
[rank 2, worker 46] busy ratio: 0.849148
[rank 2, worker 47] busy ratio: 0.849515
[rank 2, worker 48] busy ratio: 0.846715
[rank 0, worker 27] busy ratio: 0.861314
[rank 0, worker 28] busy ratio: 0.872861
[rank 3, worker 36] busy ratio: 0.841463
[rank 3, worker 37] busy ratio: 0.846715
[rank 1, worker 44] busy ratio: 0.843521
[rank 1, worker 45] busy ratio: 0.839024
[rank 2, worker 49] busy ratio: 0.832117
[rank 2, worker 50] busy ratio: 0.848411
[rank 0, worker 29] busy ratio: 0.877751
[rank 0, worker 30] busy ratio: 0.872861
[rank 0, worker 31] busy ratio: 0.862745
[rank 0, worker 32] busy ratio: 0.882641
[rank 3, worker 38] busy ratio: 0.863415
[rank 3, worker 39] busy ratio: 0.863415
[rank 1, worker 46] busy ratio: 0.836983
[rank 1, worker 47] busy ratio: 0.843902
[rank 2, worker 51] busy ratio: 0.849148
[rank 2, worker 52] busy ratio: 0.846715
[rank 0, worker 33] busy ratio: 0.877751
[rank 0, worker 34] busy ratio: 0.880488
[rank 3, worker 40] busy ratio: 0.855746
[rank 3, worker 41] busy ratio: 0.853659
[rank 3, worker 42] busy ratio: 0.856448
[rank 1, worker 48] busy ratio: 0.829684
[rank 1, worker 49] busy ratio: 0.844282
[rank 2, worker 53] busy ratio: 0.839416
[rank 2, worker 54] busy ratio: 0.836186
[rank 0, worker 35] busy ratio: 0.860636
[rank 0, worker 36] busy ratio: 0.853659
[rank 3, worker 43] busy ratio: 0.849148
[rank 3, worker 44] busy ratio: 0.846715
[rank 1, worker 50] busy ratio: 0.831707
[rank 1, worker 51] busy ratio: 0.834146
[rank 2, worker 55] busy ratio: 0.841849
[rank 0, worker 37] busy ratio: 0.858191
[rank 0, worker 38] busy ratio: 0.877751
[rank 3, worker 45] busy ratio: 0.854015
[rank 3, worker 46] busy ratio: 0.844282
[rank 1, worker 52] busy ratio: 0.831296
[rank 1, worker 53] busy ratio: 0.832117
[rank 0, worker 39] busy ratio: 0.863747
[rank 0, worker 40] busy ratio: 0.860976
[rank 3, worker 47] busy ratio: 0.844282
[rank 3, worker 48] busy ratio: 0.846341
[rank 1, worker 54] busy ratio: 0.824818
[rank 1, worker 55] busy ratio: 0.826829
[rank 0, worker 41] busy ratio: 0.858881
[rank 0, worker 42] busy ratio: 0.856448
[rank 0, worker 43] busy ratio: 0.860636
[rank 3, worker 49] busy ratio: 0.849148
[rank 3, worker 50] busy ratio: 0.841463
[rank 3, worker 51] busy ratio: 0.846341
[rank 0, worker 44] busy ratio: 0.851582
[rank 0, worker 45] busy ratio: 0.868613
[rank 3, worker 52] busy ratio: 0.846715
[rank 3, worker 53] busy ratio: 0.859223
[rank 0, worker 46] busy ratio: 0.851220
[rank 0, worker 47] busy ratio: 0.860976
[rank 3, worker 54] busy ratio: 0.841463
[rank 3, worker 55] busy ratio: 0.846341
[rank 0, worker 48] busy ratio: 0.849148
[rank 0, worker 49] busy ratio: 0.860976
[rank 0, worker 50] busy ratio: 0.858537
[rank 0, worker 51] busy ratio: 0.853659
[rank 0, worker 52] busy ratio: 0.850856
[rank 0, worker 53] busy ratio: 0.853301
[rank 0, worker 54] busy ratio: 0.851220
[rank 0, worker 55] busy ratio: 0.846715
Loop time of 4.11646 on 224 procs for 100 steps with 2048000 atoms

Performance: 10494.466 tau/day, 24.293 timesteps/s
4788.1% CPU use with 4 MPI tasks x 56 OpenMP threads

MPI task timing breakdown:
Section |  min time  |  avg time  |  max time  |%varavg| %total
---------------------------------------------------------------
Pair    | 1.3062     | 1.3609     | 1.4637     |   5.3 | 33.06
Neigh   | 0.22257    | 0.23978    | 0.26119    |   2.8 |  5.82
Comm    | 1.4545     | 1.527      | 1.6718     |   7.0 | 37.09
Output  | 0.00013869 | 0.0075467  | 0.011522   |   5.2 |  0.18
Modify  | 0.3455     | 0.41469    | 0.50241    |   9.0 | 10.07
Other   |            | 0.5666     |            |       | 13.76

Nlocal:    512000 ave 512063 max 511907 min
Histogram: 1 0 0 0 1 0 0 0 0 2
Nghost:    118534 ave 118636 max 118416 min
Histogram: 1 0 0 0 0 2 0 0 0 1
Neighs:    0 ave 0 max 0 min
Histogram: 4 0 0 0 0 0 0 0 0 0
FullNghs:  3.8457e+07 ave 3.8468e+07 max 3.84444e+07 min
Histogram: 1 0 0 0 0 1 1 0 0 1

Total # of neighbors = 153828000
Ave neighs/atom = 75.1113
Neighbor list builds = 5
Dangerous builds not checked
Total wall time: 0:00:06
