LAMMPS (7 Aug 2019)
KOKKOS mode is enabled (../kokkos.cpp:85)
  will use up to 0 GPU(s) per node
  using 56 OpenMP thread(s) per MPI task
Lattice spacing in x,y,z = 1.6796 1.6796 1.6796
Created orthogonal box = (0 0 0) to (134.368 134.368 134.368)
  1 by 2 by 2 MPI processor grid
Created 2048000 atoms
  create_atoms CPU = 1.50514 secs
Neighbor list info ...
  update every 20 steps, delay 0 steps, check no
  max neighbors/atom: 2000, page size: 100000
  master list distance cutoff = 2.8
  ghost atom cutoff = 2.8
  binsize = 1.4, bins = 96 96 96
  1 neighbor lists, perpetual/occasional/extra = 1 0 0
  (1) pair lj/cut/kk, perpetual
      attributes: full, newton off, kokkos_device
      pair build: full/bin/kk/device
      stencil: full/bin/3d
      bin: kk/device
Setting up Verlet run ...
  Unit style    : lj
  Current step  : 0
  Time step     : 0.005
Per MPI rank memory allocation (min/avg/max) = 1166 | 1166 | 1166 Mbytes
Step Temp E_pair E_mol TotEng Press 
       0         1.44   -6.7733681            0   -4.6133691   -5.0196699 
     100   0.75921977   -5.7611315            0   -4.6223024   0.19208802 
[rank 0, worker 0] busy ratio: 0.961783
[rank 0, worker 1] busy ratio: 0.881141
[rank 0, worker 2] busy ratio: 0.862342
[rank 3, worker 0] busy ratio: 0.966981
[rank 3, worker 1] busy ratio: 0.869841
[rank 3, worker 2] busy ratio: 0.841521
[rank 3, worker 3] busy ratio: 0.855784
[rank 3, worker 4] busy ratio: 0.852615
[rank 3, worker 5] busy ratio: 0.826984
[rank 3, worker 6] busy ratio: 0.826984
[rank 3, worker 7] busy ratio: 0.851030
[rank 3, worker 8] busy ratio: 0.846032
[rank 3, worker 9] busy ratio: 0.855784
[rank 3, worker 10] busy ratio: 0.829114
[rank 3, worker 11] busy ratio: 0.819334
[rank 3, worker 12] busy ratio: 0.827532
[rank 3, worker 13] busy ratio: 0.825397
[rank 3, worker 14] busy ratio: 0.857369
[rank 3, worker 15] busy ratio: 0.851030
[rank 3, worker 16] busy ratio: 0.825674
[rank 3, worker 17] busy ratio: 0.851030
[rank 3, worker 18] busy ratio: 0.823810
[rank 3, worker 19] busy ratio: 0.818038
[rank 3, worker 20] busy ratio: 0.816165
[rank 1, worker 0] busy ratio: 0.965079
[rank 1, worker 1] busy ratio: 0.797147
[rank 1, worker 2] busy ratio: 0.815873
[rank 1, worker 3] busy ratio: 0.808544
[rank 1, worker 4] busy ratio: 0.805380
[rank 1, worker 5] busy ratio: 0.786392
[rank 1, worker 6] busy ratio: 0.784469
[rank 1, worker 7] busy ratio: 0.810811
[rank 3, worker 21] busy ratio: 0.838095
[rank 3, worker 22] busy ratio: 0.855784
[rank 0, worker 3] busy ratio: 0.870048
[rank 0, worker 4] busy ratio: 0.850794
[rank 0, worker 5] busy ratio: 0.825674
[rank 0, worker 6] busy ratio: 0.822222
[rank 0, worker 7] busy ratio: 0.876190
[rank 0, worker 8] busy ratio: 0.876387
[rank 0, worker 9] busy ratio: 0.879556
[rank 0, worker 10] busy ratio: 0.830428
[rank 0, worker 11] busy ratio: 0.823810
[rank 3, worker 23] busy ratio: 0.836767
[rank 3, worker 24] busy ratio: 0.818038
[rank 3, worker 25] busy ratio: 0.814580
[rank 2, worker 0] busy ratio: 0.955906
[rank 2, worker 1] busy ratio: 0.825119
[rank 2, worker 2] busy ratio: 0.841017
[rank 2, worker 3] busy ratio: 0.841270
[rank 2, worker 4] busy ratio: 0.806349
[rank 2, worker 5] busy ratio: 0.798732
[rank 2, worker 6] busy ratio: 0.793651
[rank 2, worker 7] busy ratio: 0.828299
[rank 2, worker 8] busy ratio: 0.829889
[rank 0, worker 12] busy ratio: 0.820919
[rank 0, worker 13] busy ratio: 0.807631
[rank 0, worker 14] busy ratio: 0.881141
[rank 0, worker 15] busy ratio: 0.871632
[rank 1, worker 8] busy ratio: 0.809826
[rank 1, worker 9] busy ratio: 0.805380
[rank 1, worker 10] busy ratio: 0.786392
[rank 1, worker 11] busy ratio: 0.779715
[rank 1, worker 12] busy ratio: 0.783228
[rank 1, worker 13] busy ratio: 0.773734
[rank 1, worker 14] busy ratio: 0.809524
[rank 1, worker 15] busy ratio: 0.808544
[rank 1, worker 16] busy ratio: 0.806656
[rank 1, worker 17] busy ratio: 0.806656
[rank 1, worker 18] busy ratio: 0.764241
[rank 1, worker 19] busy ratio: 0.765823
[rank 1, worker 20] busy ratio: 0.759494
[rank 3, worker 26] busy ratio: 0.819905
[rank 3, worker 27] busy ratio: 0.805380
[rank 2, worker 9] busy ratio: 0.841521
[rank 2, worker 10] busy ratio: 0.793651
[rank 2, worker 11] busy ratio: 0.791733
[rank 2, worker 12] busy ratio: 0.800317
[rank 2, worker 13] busy ratio: 0.792722
[rank 2, worker 14] busy ratio: 0.828025
[rank 2, worker 15] busy ratio: 0.823810
[rank 2, worker 16] busy ratio: 0.825397
[rank 2, worker 17] busy ratio: 0.818760
[rank 2, worker 18] busy ratio: 0.788553
[rank 2, worker 19] busy ratio: 0.788889
[rank 2, worker 20] busy ratio: 0.786054
[rank 2, worker 21] busy ratio: 0.827258
[rank 2, worker 22] busy ratio: 0.820635
[rank 2, worker 23] busy ratio: 0.819334
[rank 0, worker 16] busy ratio: 0.849445
[rank 0, worker 17] busy ratio: 0.870048
[rank 0, worker 18] busy ratio: 0.810127
[rank 1, worker 21] busy ratio: 0.803797
[rank 1, worker 22] busy ratio: 0.802215
[rank 1, worker 23] busy ratio: 0.792722
[rank 3, worker 28] busy ratio: 0.815580
[rank 3, worker 29] busy ratio: 0.804762
[rank 2, worker 24] busy ratio: 0.790808
[rank 2, worker 25] busy ratio: 0.787639
[rank 0, worker 19] busy ratio: 0.811709
[rank 0, worker 20] busy ratio: 0.809148
[rank 0, worker 21] busy ratio: 0.858954
[rank 0, worker 22] busy ratio: 0.866878
[rank 1, worker 24] busy ratio: 0.776899
[rank 1, worker 25] busy ratio: 0.765823
[rank 3, worker 30] busy ratio: 0.805071
[rank 3, worker 31] busy ratio: 0.811709
[rank 3, worker 32] busy ratio: 0.811410
[rank 2, worker 26] busy ratio: 0.782540
[rank 2, worker 27] busy ratio: 0.789223
[rank 0, worker 23] busy ratio: 0.853968
[rank 0, worker 24] busy ratio: 0.796209
[rank 0, worker 25] busy ratio: 0.801902
[rank 1, worker 26] busy ratio: 0.755943
[rank 1, worker 27] busy ratio: 0.761076
[rank 3, worker 33] busy ratio: 0.812698
[rank 3, worker 34] busy ratio: 0.800000
[rank 2, worker 28] busy ratio: 0.783784
[rank 2, worker 29] busy ratio: 0.770701
[rank 0, worker 26] busy ratio: 0.806962
[rank 0, worker 27] busy ratio: 0.803175
[rank 0, worker 28] busy ratio: 0.832278
[rank 1, worker 28] busy ratio: 0.768621
[rank 1, worker 29] busy ratio: 0.760697
[rank 3, worker 35] busy ratio: 0.795886
[rank 3, worker 36] busy ratio: 0.797147
[rank 3, worker 37] busy ratio: 0.800317
[rank 2, worker 30] busy ratio: 0.771429
[rank 2, worker 31] busy ratio: 0.758730
[rank 0, worker 29] busy ratio: 0.818325
[rank 0, worker 30] busy ratio: 0.820919
[rank 0, worker 31] busy ratio: 0.814873
[rank 1, worker 30] busy ratio: 0.757911
[rank 1, worker 31] busy ratio: 0.758294
[rank 3, worker 38] busy ratio: 0.793978
[rank 3, worker 39] busy ratio: 0.801587
[rank 3, worker 40] busy ratio: 0.792393
[rank 2, worker 32] busy ratio: 0.764706
[rank 2, worker 33] busy ratio: 0.748808
[rank 0, worker 32] busy ratio: 0.817750
[rank 0, worker 33] busy ratio: 0.812995
[rank 0, worker 34] busy ratio: 0.812698
[rank 0, worker 35] busy ratio: 0.810127
[rank 1, worker 32] busy ratio: 0.761076
[rank 1, worker 33] busy ratio: 0.753165
[rank 3, worker 41] busy ratio: 0.800317
[rank 3, worker 42] busy ratio: 0.792063
[rank 2, worker 34] busy ratio: 0.757962
[rank 2, worker 35] busy ratio: 0.758730
[rank 2, worker 36] busy ratio: 0.751987
[rank 2, worker 37] busy ratio: 0.747619
[rank 2, worker 38] busy ratio: 0.748019
[rank 0, worker 36] busy ratio: 0.820919
[rank 0, worker 37] busy ratio: 0.811709
[rank 0, worker 38] busy ratio: 0.809826
[rank 0, worker 39] busy ratio: 0.804107
[rank 0, worker 40] busy ratio: 0.816165
[rank 0, worker 41] busy ratio: 0.816456
[rank 1, worker 34] busy ratio: 0.749604
[rank 1, worker 35] busy ratio: 0.752773
[rank 1, worker 36] busy ratio: 0.750000
[rank 1, worker 37] busy ratio: 0.743265
[rank 3, worker 43] busy ratio: 0.789223
[rank 3, worker 44] busy ratio: 0.794304
[rank 2, worker 39] busy ratio: 0.745628
[rank 2, worker 40] busy ratio: 0.749206
[rank 0, worker 42] busy ratio: 0.802215
[rank 0, worker 43] busy ratio: 0.808241
[rank 0, worker 44] busy ratio: 0.812995
[rank 0, worker 45] busy ratio: 0.819048
[rank 0, worker 46] busy ratio: 0.809826
[rank 0, worker 47] busy ratio: 0.814873
[rank 1, worker 38] busy ratio: 0.750395
[rank 1, worker 39] busy ratio: 0.754358
[rank 3, worker 45] busy ratio: 0.804762
[rank 3, worker 46] busy ratio: 0.796825
[rank 3, worker 47] busy ratio: 0.797147
[rank 2, worker 41] busy ratio: 0.747619
[rank 2, worker 42] busy ratio: 0.740859
[rank 0, worker 48] busy ratio: 0.803797
[rank 0, worker 49] busy ratio: 0.803797
[rank 0, worker 50] busy ratio: 0.809826
[rank 1, worker 40] busy ratio: 0.753165
[rank 1, worker 41] busy ratio: 0.748418
[rank 3, worker 48] busy ratio: 0.793978
[rank 3, worker 49] busy ratio: 0.791139
[rank 2, worker 43] busy ratio: 0.747218
[rank 2, worker 44] busy ratio: 0.750794
[rank 0, worker 51] busy ratio: 0.808544
[rank 0, worker 52] busy ratio: 0.812006
[rank 0, worker 53] busy ratio: 0.805687
[rank 0, worker 54] busy ratio: 0.800633
[rank 1, worker 42] busy ratio: 0.755134
[rank 1, worker 43] busy ratio: 0.745656
[rank 3, worker 50] busy ratio: 0.790808
[rank 3, worker 51] busy ratio: 0.788889
[rank 3, worker 52] busy ratio: 0.786392
[rank 2, worker 45] busy ratio: 0.741680
[rank 2, worker 46] busy ratio: 0.742038
[rank 0, worker 55] busy ratio: 0.810127
[rank 1, worker 44] busy ratio: 0.748019
[rank 1, worker 45] busy ratio: 0.750000
[rank 3, worker 53] busy ratio: 0.786392
[rank 3, worker 54] busy ratio: 0.796825
[rank 2, worker 47] busy ratio: 0.746032
[rank 2, worker 48] busy ratio: 0.753968
Loop time of 6.33152 on 224 procs for 100 steps with 2048000 atoms

[rank 1, worker 46] busy ratio: 0.753165
[rank 1, worker 47] busy ratio: 0.737757
[rank 3, worker 55] busy ratio: 0.793651
[rank 2, worker 49] busy ratio: 0.742857
[rank 2, worker 50] busy ratio: 0.741270
[rank 1, worker 48] busy ratio: 0.740916
[rank 1, worker 49] busy ratio: 0.751582
[rank 2, worker 51] busy ratio: 0.758730
[rank 2, worker 52] busy ratio: 0.744849
[rank 1, worker 50] busy ratio: 0.748815
[rank 1, worker 51] busy ratio: 0.736926
[rank 1, worker 52] busy ratio: 0.743671
[rank 1, worker 53] busy ratio: 0.742089
[rank 2, worker 53] busy ratio: 0.748808
[rank 2, worker 54] busy ratio: 0.747218
[rank 2, worker 55] busy ratio: 0.755943
[rank 1, worker 54] busy ratio: 0.733017
[rank 1, worker 55] busy ratio: 0.748815
Performance: 6823.001 tau/day, 15.794 timesteps/s
4401.1% CPU use with 4 MPI tasks x 56 OpenMP threads

MPI task timing breakdown:
Section |  min time  |  avg time  |  max time  |%varavg| %total
---------------------------------------------------------------
Pair    | 1.4412     | 1.5003     | 1.5555     |   3.3 | 23.70
Neigh   | 0.2184     | 0.24508    | 0.27738    |   4.4 |  3.87
Comm    | 2.0711     | 2.4708     | 2.807      |  17.3 | 39.02
Output  | 0.00031025 | 0.0062101  | 0.0092434  |   4.5 |  0.10
Modify  | 0.97789    | 1.1734     | 1.6062     |  23.5 | 18.53
Other   |            | 0.9357     |            |       | 14.78

Nlocal:    512000 ave 512063 max 511907 min
Histogram: 1 0 0 0 1 0 0 0 0 2
Nghost:    118534 ave 118636 max 118416 min
Histogram: 1 0 0 0 0 2 0 0 0 1
Neighs:    0 ave 0 max 0 min
Histogram: 4 0 0 0 0 0 0 0 0 0
FullNghs:  3.8457e+07 ave 3.8468e+07 max 3.84444e+07 min
Histogram: 1 0 0 0 0 1 1 0 0 1

Total # of neighbors = 153828000
Ave neighs/atom = 75.1113
Neighbor list builds = 5
Dangerous builds not checked
Total wall time: 0:00:08
