LAMMPS (7 Aug 2019)
KOKKOS mode is enabled (../kokkos.cpp:85)
  will use up to 0 GPU(s) per node
  using 56 OpenMP thread(s) per MPI task
Lattice spacing in x,y,z = 1.6796 1.6796 1.6796
Created orthogonal box = (0 0 0) to (201.552 201.552 201.552)
  1 by 2 by 2 MPI processor grid
Created 6912000 atoms
  create_atoms CPU = 3.24411 secs
Neighbor list info ...
  update every 20 steps, delay 0 steps, check no
  max neighbors/atom: 2000, page size: 100000
  master list distance cutoff = 2.8
  ghost atom cutoff = 2.8
  binsize = 1.4, bins = 144 144 144
  1 neighbor lists, perpetual/occasional/extra = 1 0 0
  (1) pair lj/cut/kk, perpetual
      attributes: full, newton off, kokkos_device
      pair build: full/bin/kk/device
      stencil: full/bin/3d
      bin: kk/device
Setting up Verlet run ...
  Unit style    : lj
  Current step  : 0
  Time step     : 0.005
Per MPI rank memory allocation (min/avg/max) = 3650 | 3650 | 3650 Mbytes
Step Temp E_pair E_mol TotEng Press 
       0         1.44   -6.7733681            0   -4.6133684   -5.0196694 
     100   0.75929363   -5.7612508            0   -4.6223105   0.19076255 
[rank 0, worker 0] busy ratio: 0.949946
[rank 0, worker 1] busy ratio: 0.813725
[rank 0, worker 2] busy ratio: 0.845652
[rank 1, worker 0] busy ratio: 0.958651
[rank 1, worker 1] busy ratio: 0.864130
[rank 1, worker 2] busy ratio: 0.870933
[rank 1, worker 3] busy ratio: 0.862256
[rank 1, worker 4] busy ratio: 0.827549
[rank 1, worker 5] busy ratio: 0.812568
[rank 1, worker 6] busy ratio: 0.849241
[rank 1, worker 7] busy ratio: 0.872964
[rank 1, worker 8] busy ratio: 0.875271
[rank 3, worker 0] busy ratio: 0.957655
[rank 3, worker 1] busy ratio: 0.895652
[rank 3, worker 2] busy ratio: 0.888165
[rank 3, worker 3] busy ratio: 0.901194
[rank 3, worker 4] busy ratio: 0.815016
[rank 3, worker 5] busy ratio: 0.797180
[rank 3, worker 6] busy ratio: 0.811075
[rank 3, worker 7] busy ratio: 0.895765
[rank 3, worker 8] busy ratio: 0.892625
[rank 0, worker 3] busy ratio: 0.849837
[rank 0, worker 4] busy ratio: 0.838043
[rank 0, worker 5] busy ratio: 0.849077
[rank 0, worker 6] busy ratio: 0.835870
[rank 0, worker 7] busy ratio: 0.847991
[rank 1, worker 9] busy ratio: 0.877307
[rank 1, worker 10] busy ratio: 0.840737
[rank 1, worker 11] busy ratio: 0.840391
[rank 1, worker 12] busy ratio: 0.832609
[rank 1, worker 13] busy ratio: 0.837486
[rank 1, worker 14] busy ratio: 0.863489
[rank 1, worker 15] busy ratio: 0.870793
[rank 1, worker 16] busy ratio: 0.865510
[rank 1, worker 17] busy ratio: 0.864572
[rank 1, worker 18] busy ratio: 0.842733
[rank 1, worker 19] busy ratio: 0.851249
[rank 1, worker 20] busy ratio: 0.831705
[rank 1, worker 21] busy ratio: 0.864278
[rank 1, worker 22] busy ratio: 0.863341
[rank 1, worker 23] busy ratio: 0.870793
[rank 1, worker 24] busy ratio: 0.838395
[rank 1, worker 25] busy ratio: 0.828447
[rank 1, worker 26] busy ratio: 0.837310
[rank 1, worker 27] busy ratio: 0.826840
[rank 1, worker 28] busy ratio: 0.830619
[rank 1, worker 29] busy ratio: 0.823784
[rank 1, worker 30] busy ratio: 0.822319
[rank 1, worker 31] busy ratio: 0.825380
[rank 1, worker 32] busy ratio: 0.828633
[rank 0, worker 8] busy ratio: 0.847991
[rank 0, worker 9] busy ratio: 0.854506
[rank 0, worker 10] busy ratio: 0.845652
[rank 1, worker 33] busy ratio: 0.831887
[rank 1, worker 34] busy ratio: 0.824295
[rank 1, worker 35] busy ratio: 0.824485
[rank 0, worker 11] busy ratio: 0.848749
[rank 0, worker 12] busy ratio: 0.845820
[rank 1, worker 36] busy ratio: 0.822319
[rank 1, worker 37] busy ratio: 0.820847
[rank 2, worker 0] busy ratio: 0.947939
[rank 2, worker 1] busy ratio: 0.875952
[rank 2, worker 2] busy ratio: 0.882609
[rank 2, worker 3] busy ratio: 0.878525
[rank 2, worker 4] busy ratio: 0.867247
[rank 2, worker 5] busy ratio: 0.859630
[rank 2, worker 6] busy ratio: 0.859783
[rank 2, worker 7] busy ratio: 0.881393
[rank 2, worker 8] busy ratio: 0.873776
[rank 2, worker 9] busy ratio: 0.880435
[rank 3, worker 9] busy ratio: 0.902386
[rank 3, worker 10] busy ratio: 0.815418
[rank 3, worker 11] busy ratio: 0.805435
[rank 3, worker 12] busy ratio: 0.802389
[rank 3, worker 13] busy ratio: 0.812161
[rank 3, worker 14] busy ratio: 0.897937
[rank 3, worker 15] busy ratio: 0.891422
[rank 3, worker 16] busy ratio: 0.888165
[rank 3, worker 17] busy ratio: 0.893594
[rank 3, worker 18] busy ratio: 0.827736
[rank 3, worker 19] busy ratio: 0.800217
[rank 3, worker 20] busy ratio: 0.805857
[rank 3, worker 21] busy ratio: 0.893594
[rank 3, worker 22] busy ratio: 0.894680
[rank 3, worker 23] busy ratio: 0.893594
[rank 3, worker 24] busy ratio: 0.814332
[rank 3, worker 25] busy ratio: 0.821041
[rank 3, worker 26] busy ratio: 0.828261
[rank 3, worker 27] busy ratio: 0.782609
[rank 3, worker 28] busy ratio: 0.758433
[rank 3, worker 29] busy ratio: 0.753529
[rank 3, worker 30] busy ratio: 0.757872
[rank 3, worker 31] busy ratio: 0.757609
[rank 0, worker 13] busy ratio: 0.839305
[rank 0, worker 14] busy ratio: 0.843478
[rank 0, worker 15] busy ratio: 0.845820
[rank 1, worker 38] busy ratio: 0.832790
[rank 1, worker 39] busy ratio: 0.829718
[rank 2, worker 10] busy ratio: 0.850000
[rank 2, worker 11] busy ratio: 0.842391
[rank 2, worker 12] busy ratio: 0.854348
[rank 2, worker 13] busy ratio: 0.856833
[rank 2, worker 14] busy ratio: 0.872964
[rank 2, worker 15] busy ratio: 0.875000
[rank 2, worker 16] busy ratio: 0.869989
[rank 2, worker 17] busy ratio: 0.877174
[rank 2, worker 18] busy ratio: 0.858542
[rank 2, worker 19] busy ratio: 0.861806
[rank 2, worker 20] busy ratio: 0.865217
[rank 2, worker 21] busy ratio: 0.877996
[rank 2, worker 22] busy ratio: 0.881650
[rank 2, worker 23] busy ratio: 0.884657
[rank 2, worker 24] busy ratio: 0.854189
[rank 2, worker 25] busy ratio: 0.842391
[rank 2, worker 26] busy ratio: 0.855592
[rank 2, worker 27] busy ratio: 0.852334
[rank 2, worker 28] busy ratio: 0.837134
[rank 2, worker 29] busy ratio: 0.833696
[rank 2, worker 30] busy ratio: 0.835691
[rank 2, worker 31] busy ratio: 0.835870
[rank 2, worker 32] busy ratio: 0.838219
[rank 2, worker 33] busy ratio: 0.838955
[rank 2, worker 34] busy ratio: 0.846906
[rank 2, worker 35] busy ratio: 0.828074
[rank 2, worker 36] busy ratio: 0.833696
[rank 2, worker 37] busy ratio: 0.844565
[rank 3, worker 32] busy ratio: 0.770652
[rank 3, worker 33] busy ratio: 0.770901
[rank 3, worker 34] busy ratio: 0.757872
[rank 0, worker 16] busy ratio: 0.836957
[rank 0, worker 17] busy ratio: 0.837134
[rank 1, worker 40] busy ratio: 0.827549
[rank 1, worker 41] busy ratio: 0.833876
[rank 2, worker 38] busy ratio: 0.839479
[rank 2, worker 39] busy ratio: 0.844396
[rank 2, worker 40] busy ratio: 0.832427
[rank 2, worker 41] busy ratio: 0.837867
[rank 3, worker 35] busy ratio: 0.758958
[rank 3, worker 36] busy ratio: 0.755700
[rank 0, worker 18] busy ratio: 0.832972
[rank 0, worker 19] busy ratio: 0.858849
[rank 1, worker 42] busy ratio: 0.823210
[rank 1, worker 43] busy ratio: 0.821933
[rank 1, worker 44] busy ratio: 0.825190
[rank 1, worker 45] busy ratio: 0.825569
[rank 2, worker 42] busy ratio: 0.816104
[rank 2, worker 43] busy ratio: 0.841820
[rank 2, worker 44] busy ratio: 0.840217
[rank 3, worker 37] busy ratio: 0.750000
[rank 3, worker 38] busy ratio: 0.771987
[rank 0, worker 20] busy ratio: 0.837310
[rank 0, worker 21] busy ratio: 0.830803
[rank 0, worker 22] busy ratio: 0.823721
[rank 1, worker 46] busy ratio: 0.836048
[rank 1, worker 47] busy ratio: 0.823210
[rank 2, worker 45] busy ratio: 0.823913
[rank 2, worker 46] busy ratio: 0.841477
[rank 2, worker 47] busy ratio: 0.840564
[rank 2, worker 48] busy ratio: 0.841304
[rank 3, worker 39] busy ratio: 0.755435
[rank 3, worker 40] busy ratio: 0.759783
[rank 0, worker 23] busy ratio: 0.847991
[rank 0, worker 24] busy ratio: 0.842562
[rank 1, worker 48] busy ratio: 0.840564
[rank 1, worker 49] busy ratio: 0.816703
[rank 2, worker 49] busy ratio: 0.835870
[rank 2, worker 50] busy ratio: 0.836048
[rank 3, worker 41] busy ratio: 0.770652
[rank 3, worker 42] busy ratio: 0.758134
[rank 3, worker 43] busy ratio: 0.759783
[rank 3, worker 44] busy ratio: 0.757050
[rank 3, worker 45] busy ratio: 0.748373
[rank 0, worker 25] busy ratio: 0.819565
[rank 0, worker 26] busy ratio: 0.829533
[rank 0, worker 27] busy ratio: 0.824810
[rank 1, worker 50] busy ratio: 0.817985
[rank 1, worker 51] busy ratio: 0.832069
[rank 3, worker 46] busy ratio: 0.767391
[rank 3, worker 47] busy ratio: 0.751087
[rank 0, worker 28] busy ratio: 0.850925
[rank 0, worker 29] busy ratio: 0.848913
[rank 1, worker 52] busy ratio: 0.822826
[rank 1, worker 53] busy ratio: 0.812364
[rank 3, worker 48] busy ratio: 0.779587
[rank 3, worker 49] busy ratio: 0.745652
[rank 0, worker 30] busy ratio: 0.851249
[rank 0, worker 31] busy ratio: 0.855748
[rank 1, worker 54] busy ratio: 0.826464
[rank 1, worker 55] busy ratio: 0.777898
[rank 3, worker 50] busy ratio: 0.754081
[rank 3, worker 51] busy ratio: 0.747014
[rank 0, worker 32] busy ratio: 0.845820
[rank 0, worker 33] busy ratio: 0.853420
[rank 0, worker 34] busy ratio: 0.855592
[rank 3, worker 52] busy ratio: 0.771150
[rank 3, worker 53] busy ratio: 0.755435
[rank 0, worker 35] busy ratio: 0.862256
[rank 0, worker 36] busy ratio: 0.854348
[rank 3, worker 54] busy ratio: 0.742391
[rank 3, worker 55] busy ratio: 0.712269
[rank 0, worker 37] busy ratio: 0.853420
[rank 0, worker 38] busy ratio: 0.850163
[rank 2, worker 51] busy ratio: 0.851087
[rank 2, worker 52] busy ratio: 0.838395
[rank 0, worker 39] busy ratio: 0.852334
[rank 0, worker 40] busy ratio: 0.847826
[rank 0, worker 41] busy ratio: 0.849077
[rank 2, worker 53] busy ratio: 0.829348
[rank 2, worker 54] busy ratio: 0.826986
[rank 2, worker 55] busy ratio: 0.792842
[rank 0, worker 42] busy ratio: 0.834962
[rank 0, worker 43] busy ratio: 0.831887
[rank 0, worker 44] busy ratio: 0.846906
[rank 0, worker 45] busy ratio: 0.835691
[rank 0, worker 46] busy ratio: 0.832609
[rank 0, worker 47] busy ratio: 0.831705
[rank 0, worker 48] busy ratio: 0.835141
[rank 0, worker 49] busy ratio: 0.845987
[rank 0, worker 50] busy ratio: 0.830803
[rank 0, worker 51] busy ratio: 0.834962
[rank 0, worker 52] busy ratio: 0.827174
[rank 0, worker 53] busy ratio: 0.829533
[rank 0, worker 54] busy ratio: 0.827549
[rank 0, worker 55] busy ratio: 0.805646
Loop time of 9.22334 on 224 procs for 100 steps with 6912000 atoms

Performance: 4683.771 tau/day, 10.842 timesteps/s
4618.4% CPU use with 4 MPI tasks x 56 OpenMP threads

MPI task timing breakdown:
Section |  min time  |  avg time  |  max time  |%varavg| %total
---------------------------------------------------------------
Pair    | 4.4229     | 4.4899     | 4.6375     |   4.1 | 48.68
Neigh   | 0.77886    | 0.7931     | 0.81171    |   1.4 |  8.60
Comm    | 0.92778    | 1.5044     | 1.8417     |  28.2 | 16.31
Output  | 0.00054968 | 0.013377   | 0.019089   |   6.5 |  0.15
Modify  | 0.25514    | 0.27977    | 0.3259     |   5.4 |  3.03
Other   |            | 2.143      |            |       | 23.23

Nlocal:    1.728e+06 ave 1.72823e+06 max 1.72772e+06 min
Histogram: 1 0 0 0 0 1 1 0 0 1
Nghost:    260645 ave 260881 max 260518 min
Histogram: 1 1 1 0 0 0 0 0 0 1
Neighs:    0 ave 0 max 0 min
Histogram: 4 0 0 0 0 0 0 0 0 0
FullNghs:  1.2979e+08 ave 1.29814e+08 max 1.29771e+08 min
Histogram: 1 0 1 0 0 1 0 0 0 1

Total # of neighbors = 519161500
Ave neighs/atom = 75.1102
Neighbor list builds = 5
Dangerous builds not checked
Total wall time: 0:00:14
