LAMMPS (7 Aug 2019)
KOKKOS mode is enabled (../kokkos.cpp:85)
  will use up to 0 GPU(s) per node
  using 56 OpenMP thread(s) per MPI task
Lattice spacing in x,y,z = 1.6796 1.6796 1.6796
Created orthogonal box = (0 0 0) to (268.735 268.735 268.735)
  1 by 2 by 2 MPI processor grid
Created 16384000 atoms
  create_atoms CPU = 6.54295 secs
Neighbor list info ...
  update every 20 steps, delay 0 steps, check no
  max neighbors/atom: 2000, page size: 100000
  master list distance cutoff = 2.8
  ghost atom cutoff = 2.8
  binsize = 1.4, bins = 192 192 192
  1 neighbor lists, perpetual/occasional/extra = 1 0 0
  (1) pair lj/cut/kk, perpetual
      attributes: full, newton off, kokkos_device
      pair build: full/bin/kk/device
      stencil: full/bin/3d
      bin: kk/device
Setting up Verlet run ...
  Unit style    : lj
  Current step  : 0
  Time step     : 0.005
Per MPI rank memory allocation (min/avg/max) = 8306 | 8306 | 8306 Mbytes
Step Temp E_pair E_mol TotEng Press 
       0         1.44   -6.7733681            0   -4.6133682   -5.0196693 
     100   0.75918554   -5.7610896            0   -4.6223114   0.19195085 
[rank 0, worker 0] busy ratio: 0.970799
[rank 0, worker 1] busy ratio: 0.821842
[rank 0, worker 2] busy ratio: 0.826902
[rank 0, worker 3] busy ratio: 0.826351
[rank 0, worker 4] busy ratio: 0.825344
[rank 0, worker 5] busy ratio: 0.828099
[rank 0, worker 6] busy ratio: 0.824242
[rank 0, worker 7] busy ratio: 0.832048
[rank 0, worker 8] busy ratio: 0.827643
[rank 0, worker 9] busy ratio: 0.824890
[rank 0, worker 10] busy ratio: 0.829201
[rank 0, worker 11] busy ratio: 0.832415
[rank 0, worker 12] busy ratio: 0.829201
[rank 0, worker 13] busy ratio: 0.829107
[rank 0, worker 14] busy ratio: 0.824600
[rank 0, worker 15] busy ratio: 0.825799
[rank 0, worker 16] busy ratio: 0.834068
[rank 0, worker 17] busy ratio: 0.832048
[rank 1, worker 0] busy ratio: 0.964719
[rank 1, worker 1] busy ratio: 0.866593
[rank 1, worker 2] busy ratio: 0.870523
[rank 1, worker 3] busy ratio: 0.861632
[rank 1, worker 4] busy ratio: 0.830761
[rank 1, worker 5] busy ratio: 0.830854
[rank 1, worker 6] busy ratio: 0.841410
[rank 1, worker 7] busy ratio: 0.868871
[rank 1, worker 8] busy ratio: 0.871074
[rank 3, worker 0] busy ratio: 0.956977
[rank 3, worker 1] busy ratio: 0.875413
[rank 3, worker 2] busy ratio: 0.880926
[rank 3, worker 3] busy ratio: 0.869972
[rank 3, worker 4] busy ratio: 0.844542
[rank 3, worker 5] busy ratio: 0.831771
[rank 3, worker 6] busy ratio: 0.846281
[rank 3, worker 7] busy ratio: 0.878035
[rank 3, worker 8] busy ratio: 0.873278
[rank 3, worker 9] busy ratio: 0.875482
[rank 0, worker 18] busy ratio: 0.828650
[rank 0, worker 19] busy ratio: 0.820485
[rank 0, worker 20] busy ratio: 0.819383
[rank 1, worker 9] busy ratio: 0.870452
[rank 1, worker 10] busy ratio: 0.839030
[rank 1, worker 11] busy ratio: 0.824890
[rank 1, worker 12] busy ratio: 0.835262
[rank 1, worker 13] busy ratio: 0.837004
[rank 1, worker 14] busy ratio: 0.859978
[rank 1, worker 15] busy ratio: 0.865014
[rank 1, worker 16] busy ratio: 0.863987
[rank 1, worker 17] busy ratio: 0.860683
[rank 1, worker 18] busy ratio: 0.830303
[rank 1, worker 19] busy ratio: 0.841873
[rank 1, worker 20] busy ratio: 0.827093
[rank 1, worker 21] busy ratio: 0.864463
[rank 1, worker 22] busy ratio: 0.862810
[rank 1, worker 23] busy ratio: 0.865565
[rank 1, worker 24] busy ratio: 0.841873
[rank 1, worker 25] busy ratio: 0.840859
[rank 1, worker 26] busy ratio: 0.840859
[rank 1, worker 27] busy ratio: 0.819835
[rank 1, worker 28] busy ratio: 0.765030
[rank 1, worker 29] busy ratio: 0.779923
[rank 1, worker 30] busy ratio: 0.773980
[rank 1, worker 31] busy ratio: 0.763376
[rank 1, worker 32] busy ratio: 0.782681
[rank 1, worker 33] busy ratio: 0.780595
[rank 1, worker 34] busy ratio: 0.769697
[rank 1, worker 35] busy ratio: 0.773003
[rank 1, worker 36] busy ratio: 0.775510
[rank 1, worker 37] busy ratio: 0.777288
[rank 1, worker 38] busy ratio: 0.770673
[rank 1, worker 39] busy ratio: 0.782489
[rank 1, worker 40] busy ratio: 0.773429
[rank 1, worker 41] busy ratio: 0.775083
[rank 3, worker 10] busy ratio: 0.843905
[rank 3, worker 11] busy ratio: 0.849421
[rank 3, worker 12] busy ratio: 0.846916
[rank 3, worker 13] busy ratio: 0.852342
[rank 3, worker 14] busy ratio: 0.871696
[rank 3, worker 15] busy ratio: 0.871074
[rank 3, worker 16] busy ratio: 0.868943
[rank 3, worker 17] busy ratio: 0.876448
[rank 3, worker 18] busy ratio: 0.846196
[rank 3, worker 19] busy ratio: 0.833058
[rank 3, worker 20] busy ratio: 0.854075
[rank 3, worker 21] busy ratio: 0.871625
[rank 3, worker 22] busy ratio: 0.870116
[rank 3, worker 23] busy ratio: 0.869087
[rank 3, worker 24] busy ratio: 0.837927
[rank 3, worker 25] busy ratio: 0.849119
[rank 3, worker 26] busy ratio: 0.846366
[rank 3, worker 27] busy ratio: 0.836364
[rank 3, worker 28] busy ratio: 0.774959
[rank 3, worker 29] busy ratio: 0.781698
[rank 3, worker 30] busy ratio: 0.777288
[rank 3, worker 31] busy ratio: 0.770248
[rank 3, worker 32] busy ratio: 0.777165
[rank 3, worker 33] busy ratio: 0.767493
[rank 3, worker 34] busy ratio: 0.775207
[rank 0, worker 21] busy ratio: 0.825895
[rank 0, worker 22] busy ratio: 0.827548
[rank 0, worker 23] busy ratio: 0.827643
[rank 1, worker 42] busy ratio: 0.777410
[rank 1, worker 43] busy ratio: 0.778512
[rank 1, worker 44] busy ratio: 0.774105
[rank 1, worker 45] busy ratio: 0.780595
[rank 2, worker 0] busy ratio: 0.970264
[rank 2, worker 1] busy ratio: 0.847299
[rank 2, worker 2] busy ratio: 0.850138
[rank 2, worker 3] busy ratio: 0.845264
[rank 2, worker 4] busy ratio: 0.817080
[rank 2, worker 5] busy ratio: 0.828744
[rank 2, worker 6] busy ratio: 0.827643
[rank 2, worker 7] busy ratio: 0.852423
[rank 2, worker 8] busy ratio: 0.845645
[rank 2, worker 9] busy ratio: 0.855096
[rank 2, worker 10] busy ratio: 0.825991
[rank 2, worker 11] busy ratio: 0.827548
[rank 2, worker 12] busy ratio: 0.842975
[rank 2, worker 13] busy ratio: 0.839846
[rank 2, worker 14] busy ratio: 0.848953
[rank 2, worker 15] busy ratio: 0.850055
[rank 2, worker 16] busy ratio: 0.853135
[rank 2, worker 17] busy ratio: 0.845264
[rank 2, worker 18] busy ratio: 0.833609
[rank 2, worker 19] busy ratio: 0.830396
[rank 3, worker 35] busy ratio: 0.763797
[rank 3, worker 36] busy ratio: 0.775207
[rank 3, worker 37] busy ratio: 0.774780
[rank 0, worker 24] busy ratio: 0.824697
[rank 0, worker 25] busy ratio: 0.834711
[rank 1, worker 46] busy ratio: 0.783352
[rank 1, worker 47] busy ratio: 0.777839
[rank 1, worker 48] busy ratio: 0.790314
[rank 1, worker 49] busy ratio: 0.763506
[rank 2, worker 20] busy ratio: 0.826446
[rank 2, worker 21] busy ratio: 0.849587
[rank 2, worker 22] busy ratio: 0.847934
[rank 2, worker 23] busy ratio: 0.845815
[rank 2, worker 24] busy ratio: 0.830583
[rank 2, worker 25] busy ratio: 0.828744
[rank 2, worker 26] busy ratio: 0.835262
[rank 2, worker 27] busy ratio: 0.831040
[rank 2, worker 28] busy ratio: 0.792837
[rank 2, worker 29] busy ratio: 0.788981
[rank 2, worker 30] busy ratio: 0.804192
[rank 2, worker 31] busy ratio: 0.797468
[rank 2, worker 32] busy ratio: 0.802972
[rank 2, worker 33] busy ratio: 0.802313
[rank 2, worker 34] busy ratio: 0.806061
[rank 2, worker 35] busy ratio: 0.795154
[rank 2, worker 36] busy ratio: 0.807375
[rank 2, worker 37] busy ratio: 0.801211
[rank 2, worker 38] busy ratio: 0.804623
[rank 2, worker 39] busy ratio: 0.814978
[rank 2, worker 40] busy ratio: 0.801102
[rank 2, worker 41] busy ratio: 0.801762
[rank 2, worker 42] busy ratio: 0.794053
[rank 2, worker 43] busy ratio: 0.807269
[rank 2, worker 44] busy ratio: 0.792952
[rank 2, worker 45] busy ratio: 0.783590
[rank 2, worker 46] busy ratio: 0.802095
[rank 2, worker 47] busy ratio: 0.807819
[rank 2, worker 48] busy ratio: 0.803857
[rank 2, worker 49] busy ratio: 0.802863
[rank 2, worker 50] busy ratio: 0.793939
[rank 2, worker 51] busy ratio: 0.800220
[rank 2, worker 52] busy ratio: 0.800000
[rank 2, worker 53] busy ratio: 0.805510
[rank 2, worker 54] busy ratio: 0.808159
[rank 2, worker 55] busy ratio: 0.770121
[rank 3, worker 38] busy ratio: 0.778512
[rank 3, worker 39] busy ratio: 0.779063
[rank 0, worker 26] busy ratio: 0.829752
[rank 0, worker 27] busy ratio: 0.831956
[rank 1, worker 50] busy ratio: 0.776736
[rank 1, worker 51] busy ratio: 0.779371
[rank 3, worker 40] busy ratio: 0.779978
[rank 3, worker 41] busy ratio: 0.772452
[rank 0, worker 28] busy ratio: 0.815877
[rank 0, worker 29] busy ratio: 0.826997
[rank 0, worker 30] busy ratio: 0.832141
[rank 1, worker 52] busy ratio: 0.771901
[rank 1, worker 53] busy ratio: 0.788313
[rank 3, worker 42] busy ratio: 0.759647
[rank 3, worker 43] busy ratio: 0.765419
[rank 0, worker 31] busy ratio: 0.813877
[rank 0, worker 32] busy ratio: 0.826446
[rank 1, worker 54] busy ratio: 0.772452
[rank 1, worker 55] busy ratio: 0.693157
[rank 3, worker 44] busy ratio: 0.763506
[rank 3, worker 45] busy ratio: 0.758127
[rank 3, worker 46] busy ratio: 0.768044
[rank 3, worker 47] busy ratio: 0.775510
[rank 3, worker 48] busy ratio: 0.788663
[rank 3, worker 49] busy ratio: 0.771602
[rank 0, worker 33] busy ratio: 0.828650
[rank 0, worker 34] busy ratio: 0.826997
[rank 0, worker 35] busy ratio: 0.826997
[rank 3, worker 50] busy ratio: 0.775881
[rank 3, worker 51] busy ratio: 0.767493
[rank 0, worker 36] busy ratio: 0.830854
[rank 0, worker 37] busy ratio: 0.814427
[rank 3, worker 52] busy ratio: 0.765840
[rank 3, worker 53] busy ratio: 0.775758
[rank 0, worker 38] busy ratio: 0.825248
[rank 0, worker 39] busy ratio: 0.803857
[rank 0, worker 40] busy ratio: 0.820583
[rank 3, worker 54] busy ratio: 0.771224
[rank 3, worker 55] busy ratio: 0.716492
[rank 0, worker 41] busy ratio: 0.815978
[rank 0, worker 42] busy ratio: 0.801102
[rank 0, worker 43] busy ratio: 0.829564
[rank 0, worker 44] busy ratio: 0.810364
[rank 0, worker 45] busy ratio: 0.810022
[rank 0, worker 46] busy ratio: 0.814876
[rank 0, worker 47] busy ratio: 0.833700
[rank 0, worker 48] busy ratio: 0.810573
[rank 0, worker 49] busy ratio: 0.829752
[rank 0, worker 50] busy ratio: 0.808921
[rank 0, worker 51] busy ratio: 0.816979
[rank 0, worker 52] busy ratio: 0.823789
[rank 0, worker 53] busy ratio: 0.811019
[rank 0, worker 54] busy ratio: 0.831591
[rank 0, worker 55] busy ratio: 0.781577
Loop time of 18.1662 on 224 procs for 100 steps with 16384000 atoms

Performance: 2378.038 tau/day, 5.505 timesteps/s
4540.8% CPU use with 4 MPI tasks x 56 OpenMP threads

MPI task timing breakdown:
Section |  min time  |  avg time  |  max time  |%varavg| %total
---------------------------------------------------------------
Pair    | 9.5545     | 9.7281     | 10.174     |   8.3 | 53.55
Neigh   | 1.8564     | 1.925      | 2.0206     |   4.3 | 10.60
Comm    | 1.9393     | 2.894      | 3.6914     |  39.3 | 15.93
Output  | 0.0012021  | 0.026606   | 0.051167   |  13.4 |  0.15
Modify  | 0.53022    | 0.58105    | 0.63513    |   6.0 |  3.20
Other   |            | 3.011      |            |       | 16.58

Nlocal:    4.096e+06 ave 4.09657e+06 max 4.09544e+06 min
Histogram: 1 0 0 1 0 0 1 0 0 1
Nghost:    458178 ave 458566 max 457741 min
Histogram: 1 0 0 0 1 0 0 1 0 1
Neighs:    0 ave 0 max 0 min
Histogram: 4 0 0 0 0 0 0 0 0 0
FullNghs:  3.07645e+08 ave 3.07688e+08 max 3.07588e+08 min
Histogram: 1 0 0 0 1 0 0 0 1 1

Total # of neighbors = 1230581798
Ave neighs/atom = 75.1088
Neighbor list builds = 5
Dangerous builds not checked
Total wall time: 0:00:27
