LAMMPS (7 Aug 2019)
KOKKOS mode is enabled (../kokkos.cpp:85)
  will use up to 0 GPU(s) per node
  using 56 OpenMP thread(s) per MPI task
Lattice spacing in x,y,z = 1.6796 1.6796 1.6796
Created orthogonal box = (0 0 0) to (134.368 134.368 134.368)
  1 by 2 by 2 MPI processor grid
Created 2048000 atoms
  create_atoms CPU = 1.52709 secs
Neighbor list info ...
  update every 20 steps, delay 0 steps, check no
  max neighbors/atom: 2000, page size: 100000
  master list distance cutoff = 2.8
  ghost atom cutoff = 2.8
  binsize = 1.4, bins = 96 96 96
  1 neighbor lists, perpetual/occasional/extra = 1 0 0
  (1) pair lj/cut/kk, perpetual
      attributes: full, newton off, kokkos_device
      pair build: full/bin/kk/device
      stencil: full/bin/3d
      bin: kk/device
Setting up Verlet run ...
  Unit style    : lj
  Current step  : 0
  Time step     : 0.005
Per MPI rank memory allocation (min/avg/max) = 1166 | 1166 | 1166 Mbytes
Step Temp E_pair E_mol TotEng Press 
       0         1.44   -6.7733681            0   -4.6133691   -5.0196699 
     100   0.75921977   -5.7611315            0   -4.6223024   0.19208802 
[rank 3, worker 0] busy ratio: 0.985222
[rank 3, worker 1] busy ratio: 0.906404
[rank 3, worker 2] busy ratio: 0.906404
[rank 3, worker 3] busy ratio: 0.918719
[rank 3, worker 4] busy ratio: 0.916256
[rank 3, worker 5] busy ratio: 0.898765
[rank 3, worker 6] busy ratio: 0.894089
[rank 3, worker 7] busy ratio: 0.906634
[rank 3, worker 8] busy ratio: 0.914005
[rank 3, worker 9] busy ratio: 0.911548
[rank 3, worker 10] busy ratio: 0.906634
[rank 3, worker 11] busy ratio: 0.899015
[rank 3, worker 12] busy ratio: 0.898765
[rank 3, worker 13] busy ratio: 0.894089
[rank 3, worker 14] busy ratio: 0.916462
[rank 3, worker 15] busy ratio: 0.903941
[rank 3, worker 16] busy ratio: 0.894089
[rank 3, worker 17] busy ratio: 0.901478
[rank 0, worker 0] busy ratio: 0.980296
[rank 0, worker 1] busy ratio: 0.916256
[rank 0, worker 2] busy ratio: 0.913793
[rank 0, worker 3] busy ratio: 0.923833
[rank 3, worker 18] busy ratio: 0.891892
[rank 3, worker 19] busy ratio: 0.889435
[rank 3, worker 20] busy ratio: 0.893827
[rank 1, worker 0] busy ratio: 0.980392
[rank 1, worker 1] busy ratio: 0.883951
[rank 1, worker 2] busy ratio: 0.881773
[rank 1, worker 3] busy ratio: 0.888889
[rank 1, worker 4] busy ratio: 0.874693
[rank 1, worker 5] busy ratio: 0.866995
[rank 1, worker 6] busy ratio: 0.862408
[rank 1, worker 7] busy ratio: 0.881773
[rank 3, worker 21] busy ratio: 0.901720
[rank 3, worker 22] busy ratio: 0.901235
[rank 3, worker 23] busy ratio: 0.896552
[rank 3, worker 24] busy ratio: 0.889435
[rank 3, worker 25] busy ratio: 0.889163
[rank 1, worker 8] busy ratio: 0.894349
[rank 1, worker 9] busy ratio: 0.891892
[rank 1, worker 10] busy ratio: 0.862069
[rank 1, worker 11] busy ratio: 0.864198
[rank 1, worker 12] busy ratio: 0.857143
[rank 1, worker 13] busy ratio: 0.857143
[rank 1, worker 14] busy ratio: 0.896552
[rank 1, worker 15] busy ratio: 0.884521
[rank 1, worker 16] busy ratio: 0.879310
[rank 1, worker 17] busy ratio: 0.883951
[rank 1, worker 18] busy ratio: 0.842365
[rank 1, worker 19] busy ratio: 0.849383
[rank 1, worker 20] busy ratio: 0.844828
[rank 1, worker 21] busy ratio: 0.881481
[rank 1, worker 22] busy ratio: 0.879012
[rank 1, worker 23] busy ratio: 0.884521
[rank 1, worker 24] busy ratio: 0.841975
[rank 1, worker 25] busy ratio: 0.840295
[rank 1, worker 26] busy ratio: 0.844828
[rank 1, worker 27] busy ratio: 0.840686
[rank 0, worker 4] busy ratio: 0.923645
[rank 0, worker 5] busy ratio: 0.911330
[rank 0, worker 6] busy ratio: 0.920988
[rank 0, worker 7] busy ratio: 0.921376
[rank 0, worker 8] busy ratio: 0.923833
[rank 0, worker 9] busy ratio: 0.926108
[rank 0, worker 10] busy ratio: 0.911330
[rank 0, worker 11] busy ratio: 0.906634
[rank 0, worker 12] busy ratio: 0.904412
[rank 0, worker 13] busy ratio: 0.911548
[rank 3, worker 26] busy ratio: 0.884236
[rank 3, worker 27] busy ratio: 0.882064
[rank 3, worker 28] busy ratio: 0.883951
[rank 1, worker 28] busy ratio: 0.859259
[rank 1, worker 29] busy ratio: 0.864198
[rank 1, worker 30] busy ratio: 0.856790
[rank 0, worker 14] busy ratio: 0.918919
[rank 0, worker 15] busy ratio: 0.918919
[rank 3, worker 29] busy ratio: 0.879310
[rank 3, worker 30] busy ratio: 0.891626
[rank 1, worker 31] busy ratio: 0.849383
[rank 1, worker 32] busy ratio: 0.855037
[rank 0, worker 16] busy ratio: 0.916049
[rank 0, worker 17] busy ratio: 0.909314
[rank 3, worker 31] busy ratio: 0.883951
[rank 3, worker 32] busy ratio: 0.881773
[rank 1, worker 33] busy ratio: 0.852580
[rank 1, worker 34] busy ratio: 0.854321
[rank 0, worker 18] busy ratio: 0.897059
[rank 0, worker 19] busy ratio: 0.896552
[rank 3, worker 33] busy ratio: 0.881481
[rank 3, worker 34] busy ratio: 0.881481
[rank 3, worker 35] busy ratio: 0.879012
[rank 1, worker 35] busy ratio: 0.851852
[rank 1, worker 36] busy ratio: 0.845209
[rank 0, worker 20] busy ratio: 0.889163
[rank 0, worker 21] busy ratio: 0.921182
[rank 3, worker 36] busy ratio: 0.879607
[rank 3, worker 37] busy ratio: 0.868812
[rank 1, worker 37] busy ratio: 0.844828
[rank 1, worker 38] busy ratio: 0.852217
[rank 1, worker 39] busy ratio: 0.846914
[rank 1, worker 40] busy ratio: 0.847666
[rank 0, worker 22] busy ratio: 0.911330
[rank 0, worker 23] busy ratio: 0.916256
[rank 3, worker 38] busy ratio: 0.879012
[rank 3, worker 39] busy ratio: 0.874074
[rank 1, worker 41] busy ratio: 0.840295
[rank 1, worker 42] busy ratio: 0.844828
[rank 0, worker 24] busy ratio: 0.882353
[rank 0, worker 25] busy ratio: 0.889163
[rank 3, worker 40] busy ratio: 0.874384
[rank 3, worker 41] busy ratio: 0.867322
[rank 1, worker 43] busy ratio: 0.841975
[rank 1, worker 44] busy ratio: 0.850123
[rank 0, worker 26] busy ratio: 0.891892
[rank 0, worker 27] busy ratio: 0.879607
[rank 0, worker 28] busy ratio: 0.906634
[rank 0, worker 29] busy ratio: 0.906404
[rank 0, worker 30] busy ratio: 0.899015
[rank 0, worker 31] busy ratio: 0.906634
[rank 0, worker 32] busy ratio: 0.905941
[rank 3, worker 42] busy ratio: 0.874384
[rank 3, worker 43] busy ratio: 0.866667
[rank 3, worker 44] busy ratio: 0.879310
[rank 1, worker 45] busy ratio: 0.830049
[rank 1, worker 46] busy ratio: 0.837438
[rank 0, worker 33] busy ratio: 0.908867
[rank 0, worker 34] busy ratio: 0.906404
[rank 3, worker 45] busy ratio: 0.877150
[rank 3, worker 46] busy ratio: 0.866995
[rank 1, worker 47] busy ratio: 0.840295
[rank 1, worker 48] busy ratio: 0.839901
[rank 0, worker 35] busy ratio: 0.886700
[rank 0, worker 36] busy ratio: 0.898765
[rank 3, worker 47] busy ratio: 0.859951
[rank 3, worker 48] busy ratio: 0.864865
[rank 1, worker 49] busy ratio: 0.852217
[rank 2, worker 0] busy ratio: 0.982843
[rank 2, worker 1] busy ratio: 0.884521
[rank 2, worker 2] busy ratio: 0.891892
[rank 2, worker 3] busy ratio: 0.896806
[rank 2, worker 4] busy ratio: 0.886978
[rank 2, worker 5] busy ratio: 0.871921
[rank 2, worker 6] busy ratio: 0.874384
[rank 2, worker 7] busy ratio: 0.893827
[rank 2, worker 8] busy ratio: 0.891089
[rank 2, worker 9] busy ratio: 0.891892
[rank 0, worker 37] busy ratio: 0.886978
[rank 0, worker 38] busy ratio: 0.894349
[rank 3, worker 49] busy ratio: 0.869779
[rank 3, worker 50] busy ratio: 0.872236
[rank 3, worker 51] busy ratio: 0.866995
[rank 1, worker 50] busy ratio: 0.830467
[rank 1, worker 51] busy ratio: 0.840295
[rank 0, worker 39] busy ratio: 0.889435
[rank 0, worker 40] busy ratio: 0.886700
[rank 3, worker 52] busy ratio: 0.871921
[rank 3, worker 53] busy ratio: 0.866667
[rank 3, worker 54] busy ratio: 0.869136
[rank 1, worker 52] busy ratio: 0.830049
[rank 1, worker 53] busy ratio: 0.829630
[rank 2, worker 10] busy ratio: 0.862408
[rank 2, worker 11] busy ratio: 0.869779
[rank 2, worker 12] busy ratio: 0.864532
[rank 2, worker 13] busy ratio: 0.869779
[rank 2, worker 14] busy ratio: 0.884236
[rank 2, worker 15] busy ratio: 0.879012
[rank 2, worker 16] busy ratio: 0.879310
[rank 2, worker 17] busy ratio: 0.886420
[rank 2, worker 18] busy ratio: 0.866995
[rank 2, worker 19] busy ratio: 0.859606
[rank 2, worker 20] busy ratio: 0.857143
[rank 2, worker 21] busy ratio: 0.879012
[rank 2, worker 22] busy ratio: 0.884521
[rank 2, worker 23] busy ratio: 0.871921
[rank 2, worker 24] busy ratio: 0.862069
[rank 2, worker 25] busy ratio: 0.851852
[rank 2, worker 26] busy ratio: 0.852217
[rank 2, worker 27] busy ratio: 0.852941
[rank 2, worker 28] busy ratio: 0.861728
[rank 2, worker 29] busy ratio: 0.855037
[rank 2, worker 30] busy ratio: 0.854321
[rank 2, worker 31] busy ratio: 0.845209
[rank 2, worker 32] busy ratio: 0.854680
[rank 2, worker 33] busy ratio: 0.850123
[rank 0, worker 41] busy ratio: 0.882353
[rank 0, worker 42] busy ratio: 0.889163
[rank 3, worker 55] busy ratio: 0.862408
[rank 1, worker 54] busy ratio: 0.830049
[rank 1, worker 55] busy ratio: 0.834975
[rank 2, worker 34] busy ratio: 0.845209
[rank 2, worker 35] busy ratio: 0.848039
[rank 0, worker 43] busy ratio: 0.882064
[rank 0, worker 44] busy ratio: 0.889163
[rank 2, worker 36] busy ratio: 0.834975
[rank 2, worker 37] busy ratio: 0.842365
[rank 0, worker 45] busy ratio: 0.909091
[rank 0, worker 46] busy ratio: 0.891892
[rank 2, worker 38] busy ratio: 0.842365
[rank 2, worker 39] busy ratio: 0.843137
[rank 2, worker 40] busy ratio: 0.842752
[rank 0, worker 47] busy ratio: 0.882064
[rank 0, worker 48] busy ratio: 0.882064
[rank 0, worker 49] busy ratio: 0.886978
[rank 0, worker 50] busy ratio: 0.886978
[rank 0, worker 51] busy ratio: 0.874693
[rank 0, worker 52] busy ratio: 0.877150
[rank 2, worker 41] busy ratio: 0.844828
[rank 2, worker 42] busy ratio: 0.840295
[rank 0, worker 53] busy ratio: 0.882064
[rank 0, worker 54] busy ratio: 0.874693
[rank 2, worker 43] busy ratio: 0.833333
[rank 2, worker 44] busy ratio: 0.844828
[rank 2, worker 45] busy ratio: 0.830049
[rank 2, worker 46] busy ratio: 0.844828
[rank 0, worker 55] busy ratio: 0.877150
[rank 2, worker 47] busy ratio: 0.833333
[rank 2, worker 48] busy ratio: 0.825980
[rank 2, worker 49] busy ratio: 0.839901
[rank 2, worker 50] busy ratio: 0.823529
[rank 2, worker 51] busy ratio: 0.826406
[rank 2, worker 52] busy ratio: 0.833333
[rank 2, worker 53] busy ratio: 0.828010
[rank 2, worker 54] busy ratio: 0.830882
[rank 2, worker 55] busy ratio: 0.830467
Loop time of 4.07461 on 224 procs for 100 steps with 2048000 atoms

Performance: 10602.239 tau/day, 24.542 timesteps/s
4834.0% CPU use with 4 MPI tasks x 56 OpenMP threads

MPI task timing breakdown:
Section |  min time  |  avg time  |  max time  |%varavg| %total
---------------------------------------------------------------
Pair    | 1.2869     | 1.3427     | 1.4        |   3.9 | 32.95
Neigh   | 0.22037    | 0.23109    | 0.24102    |   1.5 |  5.67
Comm    | 1.1108     | 1.4476     | 1.6943     |  20.1 | 35.53
Output  | 0.00021432 | 0.0024301  | 0.0036341  |   2.7 |  0.06
Modify  | 0.31436    | 0.50004    | 0.7733     |  25.0 | 12.27
Other   |            | 0.5508     |            |       | 13.52

Nlocal:    512000 ave 512063 max 511907 min
Histogram: 1 0 0 0 1 0 0 0 0 2
Nghost:    118534 ave 118636 max 118416 min
Histogram: 1 0 0 0 0 2 0 0 0 1
Neighs:    0 ave 0 max 0 min
Histogram: 4 0 0 0 0 0 0 0 0 0
FullNghs:  3.8457e+07 ave 3.8468e+07 max 3.84444e+07 min
Histogram: 1 0 0 0 0 1 1 0 0 1

Total # of neighbors = 153828000
Ave neighs/atom = 75.1113
Neighbor list builds = 5
Dangerous builds not checked
Total wall time: 0:00:06
