LAMMPS (7 Aug 2019)
KOKKOS mode is enabled (../kokkos.cpp:85)
  will use up to 0 GPU(s) per node
  using 56 OpenMP thread(s) per MPI task
Lattice spacing in x,y,z = 1.6796 1.6796 1.6796
Created orthogonal box = (0 0 0) to (67.1838 67.1838 67.1838)
  1 by 2 by 2 MPI processor grid
Created 256000 atoms
  create_atoms CPU = 0.268486 secs
Neighbor list info ...
  update every 20 steps, delay 0 steps, check no
  max neighbors/atom: 2000, page size: 100000
  master list distance cutoff = 2.8
  ghost atom cutoff = 2.8
  binsize = 1.4, bins = 48 48 48
  1 neighbor lists, perpetual/occasional/extra = 1 0 0
  (1) pair lj/cut/kk, perpetual
      attributes: full, newton off, kokkos_device
      pair build: full/bin/kk/device
      stencil: full/bin/3d
      bin: kk/device
Setting up Verlet run ...
  Unit style    : lj
  Current step  : 0
  Time step     : 0.005
Per MPI rank memory allocation (min/avg/max) = 196.2 | 196.2 | 196.2 Mbytes
Step Temp E_pair E_mol TotEng Press 
       0         1.44   -6.7733681            0   -4.6133765    -5.019674 
     100   0.75865617   -5.7603259            0   -4.6223461   0.19586104 
[rank 3, worker 0] busy ratio: 0.953846
[rank 3, worker 1] busy ratio: 0.875000
[rank 3, worker 2] busy ratio: 0.867704
[rank 3, worker 3] busy ratio: 0.875486
[rank 3, worker 4] busy ratio: 0.859922
[rank 3, worker 5] busy ratio: 0.844961
[rank 3, worker 6] busy ratio: 0.843137
[rank 3, worker 7] busy ratio: 0.870588
[rank 3, worker 8] busy ratio: 0.871595
[rank 3, worker 9] busy ratio: 0.864341
[rank 3, worker 10] busy ratio: 0.844358
[rank 3, worker 11] busy ratio: 0.841085
[rank 3, worker 12] busy ratio: 0.844358
[rank 3, worker 13] busy ratio: 0.841085
[rank 3, worker 14] busy ratio: 0.852713
[rank 3, worker 15] busy ratio: 0.863813
[rank 3, worker 16] busy ratio: 0.863813
[rank 3, worker 17] busy ratio: 0.859922
[rank 3, worker 18] busy ratio: 0.840467
[rank 3, worker 19] busy ratio: 0.840467
[rank 3, worker 20] busy ratio: 0.839844
[rank 3, worker 21] busy ratio: 0.851562
[rank 3, worker 22] busy ratio: 0.848249
[rank 3, worker 23] busy ratio: 0.859375
[rank 3, worker 24] busy ratio: 0.840467
[rank 3, worker 25] busy ratio: 0.840467
[rank 3, worker 26] busy ratio: 0.836576
[rank 3, worker 27] busy ratio: 0.833333
[rank 3, worker 28] busy ratio: 0.843750
[rank 3, worker 29] busy ratio: 0.836576
[rank 3, worker 30] busy ratio: 0.836576
[rank 3, worker 31] busy ratio: 0.836576
[rank 3, worker 32] busy ratio: 0.836576
[rank 3, worker 33] busy ratio: 0.839844
[rank 3, worker 34] busy ratio: 0.833333
[rank 3, worker 35] busy ratio: 0.836576
[rank 3, worker 36] busy ratio: 0.836576
[rank 3, worker 37] busy ratio: 0.836576
[rank 3, worker 38] busy ratio: 0.836576
[rank 3, worker 39] busy ratio: 0.837209
[rank 3, worker 40] busy ratio: 0.837209
[rank 3, worker 41] busy ratio: 0.840467
[rank 3, worker 42] busy ratio: 0.832685
[rank 3, worker 43] busy ratio: 0.833333
[rank 3, worker 44] busy ratio: 0.836576
[rank 3, worker 45] busy ratio: 0.832685
[rank 3, worker 46] busy ratio: 0.836576
[rank 3, worker 47] busy ratio: 0.836576
[rank 3, worker 48] busy ratio: 0.837209
[rank 3, worker 49] busy ratio: 0.835938
[rank 3, worker 50] busy ratio: 0.840467
[rank 3, worker 51] busy ratio: 0.839844
[rank 3, worker 52] busy ratio: 0.839844
[rank 3, worker 53] busy ratio: 0.836576
[rank 3, worker 54] busy ratio: 0.840467
[rank 3, worker 55] busy ratio: 0.836576
[rank 2, worker 0] busy ratio: 0.965385
[rank 2, worker 1] busy ratio: 0.844358
[rank 2, worker 2] busy ratio: 0.852713
[rank 2, worker 3] busy ratio: 0.844358
[rank 2, worker 4] busy ratio: 0.840467
[rank 2, worker 5] busy ratio: 0.821705
[rank 2, worker 6] busy ratio: 0.821012
[rank 2, worker 7] busy ratio: 0.844358
[rank 2, worker 8] busy ratio: 0.844961
[rank 2, worker 9] busy ratio: 0.844961
[rank 2, worker 10] busy ratio: 0.824903
[rank 2, worker 11] busy ratio: 0.822394
[rank 2, worker 12] busy ratio: 0.824903
[rank 1, worker 0] busy ratio: 0.952941
[rank 1, worker 1] busy ratio: 0.857143
[rank 1, worker 2] busy ratio: 0.860465
[rank 1, worker 3] busy ratio: 0.857143
[rank 1, worker 4] busy ratio: 0.850000
[rank 1, worker 5] busy ratio: 0.834615
[rank 1, worker 6] busy ratio: 0.838462
[rank 1, worker 7] busy ratio: 0.853846
[rank 1, worker 8] busy ratio: 0.857143
[rank 1, worker 9] busy ratio: 0.861538
[rank 1, worker 10] busy ratio: 0.837838
[rank 1, worker 11] busy ratio: 0.838462
[rank 1, worker 12] busy ratio: 0.841699
[rank 1, worker 13] busy ratio: 0.844961
[rank 1, worker 14] busy ratio: 0.857143
[rank 1, worker 15] busy ratio: 0.850000
[rank 1, worker 16] busy ratio: 0.853282
[rank 1, worker 17] busy ratio: 0.872587
[rank 1, worker 18] busy ratio: 0.833977
[rank 1, worker 19] busy ratio: 0.834615
[rank 1, worker 20] busy ratio: 0.833977
[rank 1, worker 21] busy ratio: 0.850000
[rank 1, worker 22] busy ratio: 0.853282
[rank 1, worker 23] busy ratio: 0.841699
[rank 1, worker 24] busy ratio: 0.837838
[rank 1, worker 25] busy ratio: 0.833333
[rank 1, worker 26] busy ratio: 0.833977
[rank 1, worker 27] busy ratio: 0.834615
[rank 1, worker 28] busy ratio: 0.841699
[rank 1, worker 29] busy ratio: 0.830769
[rank 1, worker 30] busy ratio: 0.837838
[rank 1, worker 31] busy ratio: 0.833977
[rank 1, worker 32] busy ratio: 0.833977
[rank 1, worker 33] busy ratio: 0.830116
[rank 1, worker 34] busy ratio: 0.830769
[rank 1, worker 35] busy ratio: 0.830769
[rank 1, worker 36] busy ratio: 0.837838
[rank 1, worker 37] busy ratio: 0.833977
[rank 1, worker 38] busy ratio: 0.833333
[rank 1, worker 39] busy ratio: 0.833977
[rank 1, worker 40] busy ratio: 0.833977
[rank 1, worker 41] busy ratio: 0.835249
[rank 1, worker 42] busy ratio: 0.833333
[rank 1, worker 43] busy ratio: 0.833977
[rank 1, worker 44] busy ratio: 0.830769
[rank 1, worker 45] busy ratio: 0.830116
[rank 1, worker 46] busy ratio: 0.829457
[rank 1, worker 47] busy ratio: 0.830769
[rank 1, worker 48] busy ratio: 0.833977
[rank 1, worker 49] busy ratio: 0.833977
[rank 1, worker 50] busy ratio: 0.833977
[rank 1, worker 51] busy ratio: 0.833333
[rank 1, worker 52] busy ratio: 0.833977
[rank 1, worker 53] busy ratio: 0.827586
[rank 1, worker 54] busy ratio: 0.830769
[rank 1, worker 55] busy ratio: 0.833977
[rank 2, worker 13] busy ratio: 0.822394
[rank 2, worker 14] busy ratio: 0.844961
[rank 2, worker 15] busy ratio: 0.841085
[rank 2, worker 16] busy ratio: 0.841085
[rank 2, worker 17] busy ratio: 0.848837
[rank 2, worker 18] busy ratio: 0.818533
[rank 2, worker 19] busy ratio: 0.818533
[rank 2, worker 20] busy ratio: 0.814672
[rank 2, worker 21] busy ratio: 0.828794
[rank 2, worker 22] busy ratio: 0.844358
[rank 2, worker 23] busy ratio: 0.841085
[rank 2, worker 24] busy ratio: 0.817829
[rank 2, worker 25] busy ratio: 0.821705
[rank 2, worker 26] busy ratio: 0.818533
[rank 2, worker 27] busy ratio: 0.817829
[rank 2, worker 28] busy ratio: 0.824903
[rank 2, worker 29] busy ratio: 0.813953
[rank 2, worker 30] busy ratio: 0.817829
[rank 2, worker 31] busy ratio: 0.817829
[rank 2, worker 32] busy ratio: 0.817121
[rank 2, worker 33] busy ratio: 0.818533
[rank 2, worker 34] busy ratio: 0.817121
[rank 2, worker 35] busy ratio: 0.813953
[rank 2, worker 36] busy ratio: 0.813953
[rank 2, worker 37] busy ratio: 0.813953
[rank 2, worker 38] busy ratio: 0.817121
[rank 2, worker 39] busy ratio: 0.817829
[rank 2, worker 40] busy ratio: 0.817829
[rank 2, worker 41] busy ratio: 0.817829
[rank 2, worker 42] busy ratio: 0.821012
[rank 2, worker 43] busy ratio: 0.814672
[rank 2, worker 44] busy ratio: 0.813953
[rank 2, worker 45] busy ratio: 0.817829
[rank 2, worker 46] busy ratio: 0.817121
[rank 2, worker 47] busy ratio: 0.813953
[rank 2, worker 48] busy ratio: 0.818533
[rank 2, worker 49] busy ratio: 0.813230
[rank 2, worker 50] busy ratio: 0.817829
[rank 2, worker 51] busy ratio: 0.813953
[rank 2, worker 52] busy ratio: 0.818533
[rank 2, worker 53] busy ratio: 0.817829
[rank 2, worker 54] busy ratio: 0.821012
[rank 2, worker 55] busy ratio: 0.821705
[rank 0, worker 0] busy ratio: 0.949416
[rank 0, worker 1] busy ratio: 0.860465
[rank 0, worker 2] busy ratio: 0.863813
[rank 0, worker 3] busy ratio: 0.859922
[rank 0, worker 4] busy ratio: 0.857143
[rank 0, worker 5] busy ratio: 0.837838
[rank 0, worker 6] busy ratio: 0.837838
[rank 0, worker 7] busy ratio: 0.860465
[rank 0, worker 8] busy ratio: 0.861004
[rank 0, worker 9] busy ratio: 0.864341
[rank 0, worker 10] busy ratio: 0.837209
[rank 0, worker 11] busy ratio: 0.834615
[rank 0, worker 12] busy ratio: 0.838462
[rank 0, worker 13] busy ratio: 0.834615
[rank 0, worker 14] busy ratio: 0.859922
[rank 0, worker 15] busy ratio: 0.860465
[rank 0, worker 16] busy ratio: 0.857143
[rank 0, worker 17] busy ratio: 0.853282
[rank 0, worker 18] busy ratio: 0.837209
[rank 0, worker 19] busy ratio: 0.837838
[rank 0, worker 20] busy ratio: 0.834615
[rank 0, worker 21] busy ratio: 0.864341
[rank 0, worker 22] busy ratio: 0.856589
[rank 0, worker 23] busy ratio: 0.857143
[rank 0, worker 24] busy ratio: 0.833333
[rank 0, worker 25] busy ratio: 0.833333
[rank 0, worker 26] busy ratio: 0.838462
[rank 0, worker 27] busy ratio: 0.833977
[rank 0, worker 28] busy ratio: 0.850000
[rank 0, worker 29] busy ratio: 0.841699
[rank 0, worker 30] busy ratio: 0.841699
[rank 0, worker 31] busy ratio: 0.841699
[rank 0, worker 32] busy ratio: 0.841085
[rank 0, worker 33] busy ratio: 0.841085
[rank 0, worker 34] busy ratio: 0.841699
[rank 0, worker 35] busy ratio: 0.841085
[rank 0, worker 36] busy ratio: 0.841085
[rank 0, worker 37] busy ratio: 0.845560
[rank 0, worker 38] busy ratio: 0.841699
[rank 0, worker 39] busy ratio: 0.841699
[rank 0, worker 40] busy ratio: 0.842308
[rank 0, worker 41] busy ratio: 0.841699
[rank 0, worker 42] busy ratio: 0.841699
[rank 0, worker 43] busy ratio: 0.841085
[rank 0, worker 44] busy ratio: 0.842308
[rank 0, worker 45] busy ratio: 0.842308
[rank 0, worker 46] busy ratio: 0.841699
[rank 0, worker 47] busy ratio: 0.842308
[rank 0, worker 48] busy ratio: 0.841699
[rank 0, worker 49] busy ratio: 0.837209
[rank 0, worker 50] busy ratio: 0.841699
[rank 0, worker 51] busy ratio: 0.841699
[rank 0, worker 52] busy ratio: 0.841085
[rank 0, worker 53] busy ratio: 0.841699
[rank 0, worker 54] busy ratio: 0.841699
[rank 0, worker 55] busy ratio: 0.841699
Loop time of 2.59022 on 224 procs for 100 steps with 256000 atoms

Performance: 16678.148 tau/day, 38.607 timesteps/s
4576.3% CPU use with 4 MPI tasks x 56 OpenMP threads

MPI task timing breakdown:
Section |  min time  |  avg time  |  max time  |%varavg| %total
---------------------------------------------------------------
Pair    | 0.12677    | 0.12929    | 0.13389    |   0.8 |  4.99
Neigh   | 0.031734   | 0.042812   | 0.054729   |   5.0 |  1.65
Comm    | 1.859      | 1.8983     | 1.9637     |   2.9 | 73.29
Output  | 8.6117e-05 | 0.0015382  | 0.0029526  |   3.5 |  0.06
Modify  | 0.0079873  | 0.0081617  | 0.0082624  |   0.1 |  0.32
Other   |            | 0.5101     |            |       | 19.69

Nlocal:    64000 ave 64093 max 63904 min
Histogram: 1 0 0 0 1 1 0 0 0 1
Nghost:    31651.5 ave 31741 max 31553 min
Histogram: 1 0 0 0 0 2 0 0 0 1
Neighs:    0 ave 0 max 0 min
Histogram: 4 0 0 0 0 0 0 0 0 0
FullNghs:  4.80697e+06 ave 4.81695e+06 max 4.79721e+06 min
Histogram: 1 0 0 0 2 0 0 0 0 1

Total # of neighbors = 19227874
Ave neighs/atom = 75.1089
Neighbor list builds = 5
Dangerous builds not checked
Total wall time: 0:00:03
