LAMMPS (7 Aug 2019)
KOKKOS mode is enabled (../kokkos.cpp:85)
  will use up to 0 GPU(s) per node
  using 56 OpenMP thread(s) per MPI task
Lattice spacing in x,y,z = 1.6796 1.6796 1.6796
Created orthogonal box = (0 0 0) to (201.552 201.552 201.552)
  1 by 2 by 2 MPI processor grid
Created 6912000 atoms
  create_atoms CPU = 3.64304 secs
Neighbor list info ...
  update every 20 steps, delay 0 steps, check no
  max neighbors/atom: 2000, page size: 100000
  master list distance cutoff = 2.8
  ghost atom cutoff = 2.8
  binsize = 1.4, bins = 144 144 144
  1 neighbor lists, perpetual/occasional/extra = 1 0 0
  (1) pair lj/cut/kk, perpetual
      attributes: full, newton off, kokkos_device
      pair build: full/bin/kk/device
      stencil: full/bin/3d
      bin: kk/device
Setting up Verlet run ...
  Unit style    : lj
  Current step  : 0
  Time step     : 0.005
Per MPI rank memory allocation (min/avg/max) = 3650 | 3650 | 3650 Mbytes
Step Temp E_pair E_mol TotEng Press 
       0         1.44   -6.7733681            0   -4.6133684   -5.0196694 
     100   0.75929363   -5.7612508            0   -4.6223105   0.19076255 
[rank 0, worker 0] busy ratio: 0.991515
[rank 0, worker 1] busy ratio: 0.937046
[rank 0, worker 2] busy ratio: 0.930909
[rank 0, worker 3] busy ratio: 0.932285
[rank 3, worker 0] busy ratio: 0.991515
[rank 3, worker 1] busy ratio: 0.918984
[rank 3, worker 2] busy ratio: 0.915459
[rank 3, worker 3] busy ratio: 0.905683
[rank 3, worker 4] busy ratio: 0.871671
[rank 3, worker 5] busy ratio: 0.855932
[rank 3, worker 6] busy ratio: 0.870460
[rank 3, worker 7] busy ratio: 0.914044
[rank 3, worker 8] busy ratio: 0.917775
[rank 3, worker 9] busy ratio: 0.920097
[rank 3, worker 10] busy ratio: 0.870303
[rank 3, worker 11] busy ratio: 0.875303
[rank 3, worker 12] busy ratio: 0.860775
[rank 3, worker 13] busy ratio: 0.868198
[rank 3, worker 14] busy ratio: 0.912833
[rank 3, worker 15] busy ratio: 0.918984
[rank 1, worker 0] busy ratio: 0.990326
[rank 1, worker 1] busy ratio: 0.928571
[rank 1, worker 2] busy ratio: 0.914044
[rank 1, worker 3] busy ratio: 0.927449
[rank 1, worker 4] busy ratio: 0.888485
[rank 1, worker 5] busy ratio: 0.878641
[rank 1, worker 6] busy ratio: 0.889831
[rank 1, worker 7] busy ratio: 0.915254
[rank 1, worker 8] busy ratio: 0.918886
[rank 1, worker 9] busy ratio: 0.927361
[rank 3, worker 16] busy ratio: 0.904358
[rank 3, worker 17] busy ratio: 0.903265
[rank 0, worker 4] busy ratio: 0.884988
[rank 0, worker 5] busy ratio: 0.881212
[rank 0, worker 6] busy ratio: 0.871515
[rank 0, worker 7] busy ratio: 0.930993
[rank 0, worker 8] busy ratio: 0.931076
[rank 0, worker 9] busy ratio: 0.930993
[rank 0, worker 10] busy ratio: 0.874092
[rank 0, worker 11] busy ratio: 0.867879
[rank 3, worker 18] busy ratio: 0.881212
[rank 3, worker 19] busy ratio: 0.861985
[rank 3, worker 20] busy ratio: 0.876812
[rank 0, worker 12] busy ratio: 0.874092
[rank 0, worker 13] busy ratio: 0.872881
[rank 1, worker 10] busy ratio: 0.886199
[rank 1, worker 11] busy ratio: 0.884988
[rank 1, worker 12] busy ratio: 0.881356
[rank 1, worker 13] busy ratio: 0.881356
[rank 1, worker 14] busy ratio: 0.918788
[rank 1, worker 15] busy ratio: 0.916262
[rank 1, worker 16] busy ratio: 0.922612
[rank 1, worker 17] busy ratio: 0.907990
[rank 1, worker 18] busy ratio: 0.886473
[rank 1, worker 19] busy ratio: 0.881068
[rank 1, worker 20] busy ratio: 0.887409
[rank 1, worker 21] busy ratio: 0.915152
[rank 1, worker 22] busy ratio: 0.915152
[rank 1, worker 23] busy ratio: 0.912938
[rank 1, worker 24] busy ratio: 0.883777
[rank 1, worker 25] busy ratio: 0.870460
[rank 1, worker 26] busy ratio: 0.878935
[rank 1, worker 27] busy ratio: 0.870460
[rank 1, worker 28] busy ratio: 0.852300
[rank 1, worker 29] busy ratio: 0.823030
[rank 1, worker 30] busy ratio: 0.827086
[rank 1, worker 31] busy ratio: 0.843636
[rank 1, worker 32] busy ratio: 0.829091
[rank 1, worker 33] busy ratio: 0.865617
[rank 1, worker 34] busy ratio: 0.851942
[rank 3, worker 21] busy ratio: 0.909201
[rank 3, worker 22] busy ratio: 0.906780
[rank 3, worker 23] busy ratio: 0.899516
[rank 0, worker 14] busy ratio: 0.922518
[rank 0, worker 15] busy ratio: 0.924939
[rank 1, worker 35] busy ratio: 0.848668
[rank 1, worker 36] busy ratio: 0.853511
[rank 1, worker 37] busy ratio: 0.848668
[rank 3, worker 24] busy ratio: 0.877724
[rank 3, worker 25] busy ratio: 0.862152
[rank 0, worker 16] busy ratio: 0.927361
[rank 0, worker 17] busy ratio: 0.929782
[rank 1, worker 38] busy ratio: 0.871515
[rank 1, worker 39] busy ratio: 0.856106
[rank 3, worker 26] busy ratio: 0.872881
[rank 3, worker 27] busy ratio: 0.863362
[rank 3, worker 28] busy ratio: 0.874092
[rank 2, worker 0] busy ratio: 0.991536
[rank 2, worker 1] busy ratio: 0.929867
[rank 2, worker 2] busy ratio: 0.927449
[rank 2, worker 3] busy ratio: 0.922612
[rank 2, worker 4] busy ratio: 0.898182
[rank 2, worker 5] busy ratio: 0.891173
[rank 2, worker 6] busy ratio: 0.883777
[rank 2, worker 7] busy ratio: 0.922518
[rank 2, worker 8] busy ratio: 0.920193
[rank 2, worker 9] busy ratio: 0.925030
[rank 2, worker 10] busy ratio: 0.882709
[rank 2, worker 11] busy ratio: 0.883636
[rank 2, worker 12] busy ratio: 0.889831
[rank 2, worker 13] busy ratio: 0.888620
[rank 0, worker 18] busy ratio: 0.865617
[rank 0, worker 19] busy ratio: 0.870303
[rank 1, worker 40] busy ratio: 0.847273
[rank 1, worker 41] busy ratio: 0.836364
[rank 3, worker 29] busy ratio: 0.845224
[rank 3, worker 30] busy ratio: 0.866989
[rank 0, worker 20] busy ratio: 0.872881
[rank 0, worker 21] busy ratio: 0.924939
[rank 1, worker 42] busy ratio: 0.842233
[rank 1, worker 43] busy ratio: 0.856970
[rank 3, worker 31] busy ratio: 0.873035
[rank 3, worker 32] busy ratio: 0.861985
[rank 3, worker 33] busy ratio: 0.883777
[rank 2, worker 14] busy ratio: 0.923729
[rank 2, worker 15] busy ratio: 0.921308
[rank 2, worker 16] busy ratio: 0.914044
[rank 2, worker 17] busy ratio: 0.920290
[rank 2, worker 18] busy ratio: 0.886061
[rank 2, worker 19] busy ratio: 0.895884
[rank 2, worker 20] busy ratio: 0.884988
[rank 2, worker 21] busy ratio: 0.910303
[rank 2, worker 22] busy ratio: 0.920097
[rank 2, worker 23] busy ratio: 0.916465
[rank 2, worker 24] busy ratio: 0.886199
[rank 2, worker 25] busy ratio: 0.873939
[rank 2, worker 26] busy ratio: 0.883777
[rank 2, worker 27] busy ratio: 0.881499
[rank 2, worker 28] busy ratio: 0.858182
[rank 2, worker 29] busy ratio: 0.818182
[rank 2, worker 30] busy ratio: 0.855758
[rank 2, worker 31] busy ratio: 0.838592
[rank 2, worker 32] busy ratio: 0.860775
[rank 2, worker 33] busy ratio: 0.851449
[rank 2, worker 34] busy ratio: 0.875303
[rank 2, worker 35] busy ratio: 0.847642
[rank 2, worker 36] busy ratio: 0.843826
[rank 2, worker 37] busy ratio: 0.870460
[rank 2, worker 38] busy ratio: 0.860943
[rank 0, worker 22] busy ratio: 0.926150
[rank 0, worker 23] busy ratio: 0.918886
[rank 1, worker 44] busy ratio: 0.835550
[rank 1, worker 45] busy ratio: 0.854545
[rank 1, worker 46] busy ratio: 0.855758
[rank 1, worker 47] busy ratio: 0.834341
[rank 1, worker 48] busy ratio: 0.871515
[rank 3, worker 34] busy ratio: 0.870617
[rank 3, worker 35] busy ratio: 0.882709
[rank 2, worker 39] busy ratio: 0.870460
[rank 2, worker 40] busy ratio: 0.844848
[rank 0, worker 24] busy ratio: 0.857143
[rank 0, worker 25] busy ratio: 0.861985
[rank 0, worker 26] busy ratio: 0.869249
[rank 1, worker 49] busy ratio: 0.821040
[rank 1, worker 50] busy ratio: 0.858354
[rank 1, worker 51] busy ratio: 0.838983
[rank 3, worker 36] busy ratio: 0.875303
[rank 3, worker 37] busy ratio: 0.879227
[rank 2, worker 41] busy ratio: 0.861985
[rank 2, worker 42] busy ratio: 0.831515
[rank 0, worker 27] busy ratio: 0.872727
[rank 0, worker 28] busy ratio: 0.858182
[rank 0, worker 29] busy ratio: 0.830097
[rank 0, worker 30] busy ratio: 0.844015
[rank 0, worker 31] busy ratio: 0.849879
[rank 0, worker 32] busy ratio: 0.854545
[rank 1, worker 52] busy ratio: 0.861985
[rank 1, worker 53] busy ratio: 0.834140
[rank 3, worker 38] busy ratio: 0.886336
[rank 3, worker 39] busy ratio: 0.877724
[rank 3, worker 40] busy ratio: 0.860606
[rank 2, worker 43] busy ratio: 0.854545
[rank 2, worker 44] busy ratio: 0.875303
[rank 0, worker 33] busy ratio: 0.855932
[rank 0, worker 34] busy ratio: 0.865455
[rank 1, worker 54] busy ratio: 0.830508
[rank 1, worker 55] busy ratio: 0.767554
[rank 3, worker 41] busy ratio: 0.866667
[rank 3, worker 42] busy ratio: 0.869249
[rank 2, worker 45] busy ratio: 0.850060
[rank 2, worker 46] busy ratio: 0.837576
[rank 0, worker 35] busy ratio: 0.829298
[rank 0, worker 36] busy ratio: 0.854897
[rank 3, worker 43] busy ratio: 0.876513
[rank 3, worker 44] busy ratio: 0.863527
[rank 2, worker 47] busy ratio: 0.857143
[rank 2, worker 48] busy ratio: 0.841212
[rank 2, worker 49] busy ratio: 0.876513
[rank 2, worker 50] busy ratio: 0.829298
[rank 2, worker 51] busy ratio: 0.875453
[rank 0, worker 37] busy ratio: 0.867879
[rank 0, worker 38] busy ratio: 0.842805
[rank 3, worker 45] busy ratio: 0.879081
[rank 3, worker 46] busy ratio: 0.881356
[rank 3, worker 47] busy ratio: 0.869407
[rank 2, worker 52] busy ratio: 0.876364
[rank 2, worker 53] busy ratio: 0.837772
[rank 0, worker 39] busy ratio: 0.863030
[rank 0, worker 40] busy ratio: 0.829091
[rank 3, worker 48] busy ratio: 0.891041
[rank 3, worker 49] busy ratio: 0.870460
[rank 2, worker 54] busy ratio: 0.853511
[rank 2, worker 55] busy ratio: 0.796610
[rank 0, worker 41] busy ratio: 0.848485
[rank 0, worker 42] busy ratio: 0.828087
[rank 3, worker 50] busy ratio: 0.877872
[rank 3, worker 51] busy ratio: 0.870617
[rank 0, worker 43] busy ratio: 0.845224
[rank 0, worker 44] busy ratio: 0.854897
[rank 3, worker 52] busy ratio: 0.881499
[rank 3, worker 53] busy ratio: 0.857316
[rank 3, worker 54] busy ratio: 0.862152
[rank 0, worker 45] busy ratio: 0.832930
[rank 0, worker 46] busy ratio: 0.830303
[rank 0, worker 47] busy ratio: 0.855932
[rank 0, worker 48] busy ratio: 0.831719
[rank 0, worker 49] busy ratio: 0.874092
[rank 0, worker 50] busy ratio: 0.816203
[rank 3, worker 55] busy ratio: 0.803874
[rank 0, worker 51] busy ratio: 0.858525
[rank 0, worker 52] busy ratio: 0.844848
[rank 0, worker 53] busy ratio: 0.820823
[rank 0, worker 54] busy ratio: 0.834140
[rank 0, worker 55] busy ratio: 0.768765
Loop time of 8.27032 on 224 procs for 100 steps with 6912000 atoms

Performance: 5223.500 tau/day, 12.091 timesteps/s
4846.7% CPU use with 4 MPI tasks x 56 OpenMP threads

MPI task timing breakdown:
Section |  min time  |  avg time  |  max time  |%varavg| %total
---------------------------------------------------------------
Pair    | 5.4354     | 5.5175     | 5.584      |   2.5 | 66.71
Neigh   | 0.74722    | 0.78109    | 0.81677    |   3.0 |  9.44
Comm    | 0.94263    | 0.99728    | 1.0554     |   4.2 | 12.06
Output  | 0.00063904 | 0.014637   | 0.027432   |   8.4 |  0.18
Modify  | 0.28649    | 0.39357    | 0.50215    |  12.7 |  4.76
Other   |            | 0.5662     |            |       |  6.85

Nlocal:    1.728e+06 ave 1.72823e+06 max 1.72772e+06 min
Histogram: 1 0 0 0 0 1 1 0 0 1
Nghost:    260645 ave 260881 max 260518 min
Histogram: 1 1 1 0 0 0 0 0 0 1
Neighs:    0 ave 0 max 0 min
Histogram: 4 0 0 0 0 0 0 0 0 0
FullNghs:  1.2979e+08 ave 1.29814e+08 max 1.29771e+08 min
Histogram: 1 0 1 0 0 1 0 0 0 1

Total # of neighbors = 519161500
Ave neighs/atom = 75.1102
Neighbor list builds = 5
Dangerous builds not checked
Total wall time: 0:00:13
