LAMMPS (7 Aug 2019)
KOKKOS mode is enabled (../kokkos.cpp:85)
  will use up to 0 GPU(s) per node
  using 56 OpenMP thread(s) per MPI task
Lattice spacing in x,y,z = 1.6796 1.6796 1.6796
Created orthogonal box = (0 0 0) to (268.735 268.735 268.735)
  1 by 2 by 2 MPI processor grid
Created 16384000 atoms
  create_atoms CPU = 6.76106 secs
Neighbor list info ...
  update every 20 steps, delay 0 steps, check no
  max neighbors/atom: 2000, page size: 100000
  master list distance cutoff = 2.8
  ghost atom cutoff = 2.8
  binsize = 1.4, bins = 192 192 192
  1 neighbor lists, perpetual/occasional/extra = 1 0 0
  (1) pair lj/cut/kk, perpetual
      attributes: full, newton off, kokkos_device
      pair build: full/bin/kk/device
      stencil: full/bin/3d
      bin: kk/device
Setting up Verlet run ...
  Unit style    : lj
  Current step  : 0
  Time step     : 0.005
Per MPI rank memory allocation (min/avg/max) = 8306 | 8306 | 8306 Mbytes
Step Temp E_pair E_mol TotEng Press 
       0         1.44   -6.7733681            0   -4.6133682   -5.0196693 
     100   0.75918554   -5.7610896            0   -4.6223114   0.19195085 
[rank 0, worker 0] busy ratio: 0.975042
[rank 0, worker 1] busy ratio: 0.826667
[rank 0, worker 2] busy ratio: 0.818434
[rank 0, worker 3] busy ratio: 0.839534
[rank 0, worker 4] busy ratio: 0.824084
[rank 0, worker 5] busy ratio: 0.830283
[rank 0, worker 6] busy ratio: 0.832778
[rank 0, worker 7] busy ratio: 0.837313
[rank 0, worker 8] busy ratio: 0.836111
[rank 0, worker 9] busy ratio: 0.831760
[rank 0, worker 10] busy ratio: 0.829634
[rank 0, worker 11] busy ratio: 0.830094
[rank 0, worker 12] busy ratio: 0.825749
[rank 0, worker 13] busy ratio: 0.832963
[rank 0, worker 14] busy ratio: 0.819545
[rank 0, worker 15] busy ratio: 0.828333
[rank 0, worker 16] busy ratio: 0.843889
[rank 0, worker 17] busy ratio: 0.827873
[rank 0, worker 18] busy ratio: 0.823333
[rank 0, worker 19] busy ratio: 0.828619
[rank 0, worker 20] busy ratio: 0.820100
[rank 0, worker 21] busy ratio: 0.821210
[rank 0, worker 22] busy ratio: 0.825652
[rank 0, worker 23] busy ratio: 0.838513
[rank 0, worker 24] busy ratio: 0.823987
[rank 0, worker 25] busy ratio: 0.830189
[rank 0, worker 26] busy ratio: 0.822222
[rank 0, worker 27] busy ratio: 0.822222
[rank 0, worker 28] busy ratio: 0.822876
[rank 0, worker 29] busy ratio: 0.835092
[rank 0, worker 30] busy ratio: 0.830744
[rank 0, worker 31] busy ratio: 0.830650
[rank 0, worker 32] busy ratio: 0.826304
[rank 1, worker 0] busy ratio: 0.954495
[rank 1, worker 1] busy ratio: 0.866185
[rank 1, worker 2] busy ratio: 0.870627
[rank 1, worker 3] busy ratio: 0.869444
[rank 1, worker 4] busy ratio: 0.841579
[rank 1, worker 5] busy ratio: 0.838243
[rank 1, worker 6] busy ratio: 0.837868
[rank 1, worker 7] busy ratio: 0.867222
[rank 1, worker 8] busy ratio: 0.865150
[rank 3, worker 0] busy ratio: 0.961154
[rank 3, worker 1] busy ratio: 0.857936
[rank 3, worker 2] busy ratio: 0.858491
[rank 3, worker 3] busy ratio: 0.856905
[rank 3, worker 4] busy ratio: 0.834352
[rank 3, worker 5] busy ratio: 0.840089
[rank 3, worker 6] busy ratio: 0.835183
[rank 3, worker 7] busy ratio: 0.857936
[rank 3, worker 8] busy ratio: 0.858491
[rank 3, worker 9] busy ratio: 0.855161
[rank 3, worker 10] busy ratio: 0.837958
[rank 0, worker 33] busy ratio: 0.832408
[rank 0, worker 34] busy ratio: 0.827222
[rank 0, worker 35] busy ratio: 0.823529
[rank 1, worker 9] busy ratio: 0.868479
[rank 1, worker 10] busy ratio: 0.834536
[rank 1, worker 11] busy ratio: 0.844531
[rank 1, worker 12] busy ratio: 0.848333
[rank 1, worker 13] busy ratio: 0.837868
[rank 1, worker 14] busy ratio: 0.871183
[rank 1, worker 15] busy ratio: 0.870627
[rank 1, worker 16] busy ratio: 0.866741
[rank 1, worker 17] busy ratio: 0.873333
[rank 1, worker 18] busy ratio: 0.837403
[rank 1, worker 19] busy ratio: 0.842865
[rank 1, worker 20] busy ratio: 0.843420
[rank 1, worker 21] busy ratio: 0.872919
[rank 1, worker 22] busy ratio: 0.866741
[rank 1, worker 23] busy ratio: 0.862222
[rank 1, worker 24] busy ratio: 0.840089
[rank 1, worker 25] busy ratio: 0.836757
[rank 1, worker 26] busy ratio: 0.836757
[rank 1, worker 27] busy ratio: 0.829079
[rank 1, worker 28] busy ratio: 0.779322
[rank 1, worker 29] busy ratio: 0.770255
[rank 1, worker 30] busy ratio: 0.779878
[rank 1, worker 31] busy ratio: 0.776667
[rank 1, worker 32] busy ratio: 0.759023
[rank 3, worker 11] busy ratio: 0.836202
[rank 3, worker 12] busy ratio: 0.847392
[rank 3, worker 13] busy ratio: 0.827969
[rank 3, worker 14] busy ratio: 0.860710
[rank 3, worker 15] busy ratio: 0.861188
[rank 3, worker 16] busy ratio: 0.854687
[rank 3, worker 17] busy ratio: 0.860710
[rank 3, worker 18] busy ratio: 0.835183
[rank 3, worker 19] busy ratio: 0.837868
[rank 3, worker 20] busy ratio: 0.837493
[rank 3, worker 21] busy ratio: 0.858967
[rank 3, worker 22] busy ratio: 0.858014
[rank 3, worker 23] busy ratio: 0.857936
[rank 3, worker 24] busy ratio: 0.845086
[rank 3, worker 25] busy ratio: 0.838889
[rank 3, worker 26] busy ratio: 0.841375
[rank 3, worker 27] busy ratio: 0.837958
[rank 3, worker 28] busy ratio: 0.797778
[rank 3, worker 29] busy ratio: 0.809444
[rank 3, worker 30] busy ratio: 0.810211
[rank 3, worker 31] busy ratio: 0.790117
[rank 3, worker 32] busy ratio: 0.812431
[rank 3, worker 33] busy ratio: 0.818535
[rank 3, worker 34] busy ratio: 0.811111
[rank 3, worker 35] busy ratio: 0.803552
[rank 3, worker 36] busy ratio: 0.799001
[rank 0, worker 36] busy ratio: 0.837868
[rank 0, worker 37] busy ratio: 0.827414
[rank 1, worker 33] busy ratio: 0.771793
[rank 1, worker 34] busy ratio: 0.778333
[rank 1, worker 35] busy ratio: 0.773459
[rank 3, worker 37] busy ratio: 0.801111
[rank 3, worker 38] busy ratio: 0.803443
[rank 3, worker 39] busy ratio: 0.814444
[rank 0, worker 38] busy ratio: 0.825846
[rank 0, worker 39] busy ratio: 0.824444
[rank 1, worker 36] busy ratio: 0.774014
[rank 1, worker 37] busy ratio: 0.774014
[rank 3, worker 40] busy ratio: 0.822876
[rank 3, worker 41] busy ratio: 0.814095
[rank 0, worker 40] busy ratio: 0.834628
[rank 0, worker 41] busy ratio: 0.831853
[rank 0, worker 42] busy ratio: 0.819090
[rank 1, worker 38] busy ratio: 0.764444
[rank 1, worker 39] busy ratio: 0.755136
[rank 1, worker 40] busy ratio: 0.775000
[rank 3, worker 42] busy ratio: 0.776360
[rank 3, worker 43] busy ratio: 0.806219
[rank 2, worker 0] busy ratio: 0.953411
[rank 2, worker 1] busy ratio: 0.863409
[rank 2, worker 2] busy ratio: 0.867296
[rank 2, worker 3] busy ratio: 0.872293
[rank 2, worker 4] busy ratio: 0.853889
[rank 2, worker 5] busy ratio: 0.844444
[rank 2, worker 6] busy ratio: 0.849917
[rank 2, worker 7] busy ratio: 0.868406
[rank 2, worker 8] busy ratio: 0.866260
[rank 2, worker 9] busy ratio: 0.872364
[rank 0, worker 43] busy ratio: 0.827778
[rank 0, worker 44] busy ratio: 0.829728
[rank 1, worker 41] busy ratio: 0.779444
[rank 1, worker 42] busy ratio: 0.758889
[rank 3, worker 44] busy ratio: 0.799001
[rank 3, worker 45] busy ratio: 0.809656
[rank 0, worker 45] busy ratio: 0.819545
[rank 0, worker 46] busy ratio: 0.826304
[rank 0, worker 47] busy ratio: 0.835738
[rank 1, worker 43] busy ratio: 0.769444
[rank 1, worker 44] busy ratio: 0.761667
[rank 1, worker 45] busy ratio: 0.766796
[rank 1, worker 46] busy ratio: 0.784444
[rank 3, worker 46] busy ratio: 0.819190
[rank 3, worker 47] busy ratio: 0.815308
[rank 3, worker 48] busy ratio: 0.807436
[rank 3, worker 49] busy ratio: 0.797890
[rank 3, worker 50] busy ratio: 0.812535
[rank 0, worker 48] busy ratio: 0.828429
[rank 0, worker 49] busy ratio: 0.829079
[rank 0, worker 50] busy ratio: 0.809207
[rank 1, worker 47] busy ratio: 0.780244
[rank 1, worker 48] busy ratio: 0.793448
[rank 3, worker 51] busy ratio: 0.803998
[rank 3, worker 52] busy ratio: 0.807436
[rank 0, worker 51] busy ratio: 0.829539
[rank 0, worker 52] busy ratio: 0.825749
[rank 1, worker 49] busy ratio: 0.742921
[rank 1, worker 50] busy ratio: 0.770255
[rank 3, worker 53] busy ratio: 0.806434
[rank 3, worker 54] busy ratio: 0.812986
[rank 0, worker 53] busy ratio: 0.813437
[rank 0, worker 54] busy ratio: 0.835647
[rank 1, worker 51] busy ratio: 0.769572
[rank 1, worker 52] busy ratio: 0.774014
[rank 3, worker 55] busy ratio: 0.778579
[rank 0, worker 55] busy ratio: 0.800222
[rank 1, worker 53] busy ratio: 0.768590
[rank 1, worker 54] busy ratio: 0.770428
[rank 1, worker 55] busy ratio: 0.713889
[rank 2, worker 10] busy ratio: 0.848333
[rank 2, worker 11] busy ratio: 0.853333
[rank 2, worker 12] busy ratio: 0.854525
[rank 2, worker 13] busy ratio: 0.849444
[rank 2, worker 14] busy ratio: 0.871183
[rank 2, worker 15] busy ratio: 0.866815
[rank 2, worker 16] busy ratio: 0.875625
[rank 2, worker 17] busy ratio: 0.870144
[rank 2, worker 18] busy ratio: 0.841111
[rank 2, worker 19] busy ratio: 0.842865
[rank 2, worker 20] busy ratio: 0.834444
[rank 2, worker 21] busy ratio: 0.871254
[rank 2, worker 22] busy ratio: 0.870000
[rank 2, worker 23] busy ratio: 0.871254
[rank 2, worker 24] busy ratio: 0.842310
[rank 2, worker 25] busy ratio: 0.841579
[rank 2, worker 26] busy ratio: 0.852860
[rank 2, worker 27] busy ratio: 0.839534
[rank 2, worker 28] busy ratio: 0.792893
[rank 2, worker 29] busy ratio: 0.780677
[rank 2, worker 30] busy ratio: 0.794559
[rank 2, worker 31] busy ratio: 0.786230
[rank 2, worker 32] busy ratio: 0.783889
[rank 2, worker 33] busy ratio: 0.801111
[rank 2, worker 34] busy ratio: 0.778579
[rank 2, worker 35] busy ratio: 0.785239
[rank 2, worker 36] busy ratio: 0.782222
[rank 2, worker 37] busy ratio: 0.775556
[rank 2, worker 38] busy ratio: 0.794886
[rank 2, worker 39] busy ratio: 0.781111
[rank 2, worker 40] busy ratio: 0.779012
[rank 2, worker 41] busy ratio: 0.798889
[rank 2, worker 42] busy ratio: 0.773333
[rank 2, worker 43] busy ratio: 0.797890
[rank 2, worker 44] busy ratio: 0.787222
[rank 2, worker 45] busy ratio: 0.773333
[rank 2, worker 46] busy ratio: 0.777901
[rank 2, worker 47] busy ratio: 0.802222
[rank 2, worker 48] busy ratio: 0.781667
[rank 2, worker 49] busy ratio: 0.795669
[rank 2, worker 50] busy ratio: 0.779444
[rank 2, worker 51] busy ratio: 0.772349
[rank 2, worker 52] busy ratio: 0.784444
[rank 2, worker 53] busy ratio: 0.786667
[rank 2, worker 54] busy ratio: 0.796224
[rank 2, worker 55] busy ratio: 0.726111
Loop time of 18.0312 on 224 procs for 100 steps with 16384000 atoms

Performance: 2395.847 tau/day, 5.546 timesteps/s
4565.7% CPU use with 4 MPI tasks x 56 OpenMP threads

MPI task timing breakdown:
Section |  min time  |  avg time  |  max time  |%varavg| %total
---------------------------------------------------------------
Pair    | 9.57       | 9.7971     | 10.318     |   9.7 | 54.33
Neigh   | 1.8713     | 1.9235     | 2.0021     |   3.9 | 10.67
Comm    | 2.0517     | 2.4806     | 2.9859     |  24.1 | 13.76
Output  | 0.0011784  | 0.046115   | 0.076478   |  14.1 |  0.26
Modify  | 0.53064    | 0.56807    | 0.63549    |   5.7 |  3.15
Other   |            | 3.216      |            |       | 17.83

Nlocal:    4.096e+06 ave 4.09657e+06 max 4.09544e+06 min
Histogram: 1 0 0 1 0 0 1 0 0 1
Nghost:    458178 ave 458566 max 457741 min
Histogram: 1 0 0 0 1 0 0 1 0 1
Neighs:    0 ave 0 max 0 min
Histogram: 4 0 0 0 0 0 0 0 0 0
FullNghs:  3.07645e+08 ave 3.07688e+08 max 3.07588e+08 min
Histogram: 1 0 0 0 1 0 0 0 1 1

Total # of neighbors = 1230581798
Ave neighs/atom = 75.1088
Neighbor list builds = 5
Dangerous builds not checked
Total wall time: 0:00:28
