LAMMPS (7 Aug 2019)
KOKKOS mode is enabled (../kokkos.cpp:85)
  will use up to 0 GPU(s) per node
  using 56 OpenMP thread(s) per MPI task
Lattice spacing in x,y,z = 1.6796 1.6796 1.6796
Created orthogonal box = (0 0 0) to (134.368 134.368 134.368)
  1 by 2 by 2 MPI processor grid
Created 2048000 atoms
  create_atoms CPU = 1.34711 secs
Neighbor list info ...
  update every 20 steps, delay 0 steps, check no
  max neighbors/atom: 2000, page size: 100000
  master list distance cutoff = 2.8
  ghost atom cutoff = 2.8
  binsize = 1.4, bins = 96 96 96
  1 neighbor lists, perpetual/occasional/extra = 1 0 0
  (1) pair lj/cut/kk, perpetual
      attributes: full, newton off, kokkos_device
      pair build: full/bin/kk/device
      stencil: full/bin/3d
      bin: kk/device
Setting up Verlet run ...
  Unit style    : lj
  Current step  : 0
  Time step     : 0.005
Per MPI rank memory allocation (min/avg/max) = 1166 | 1166 | 1166 Mbytes
Step Temp E_pair E_mol TotEng Press 
       0         1.44   -6.7733681            0   -4.6133691   -5.0196699 
     100   0.75921977   -5.7611315            0   -4.6223024   0.19208802 
[rank 0, worker 0] busy ratio: 0.930788
[rank 0, worker 1] busy ratio: 0.883333
[rank 0, worker 2] busy ratio: 0.880952
[rank 0, worker 3] busy ratio: 0.885714
[rank 3, worker 0] busy ratio: 0.968974
[rank 3, worker 1] busy ratio: 0.814286
[rank 3, worker 2] busy ratio: 0.821429
[rank 3, worker 3] busy ratio: 0.824645
[rank 3, worker 4] busy ratio: 0.818616
[rank 3, worker 5] busy ratio: 0.807601
[rank 3, worker 6] busy ratio: 0.792857
[rank 3, worker 7] busy ratio: 0.828162
[rank 3, worker 8] busy ratio: 0.830549
[rank 1, worker 0] busy ratio: 0.961814
[rank 1, worker 1] busy ratio: 0.834532
[rank 1, worker 2] busy ratio: 0.843750
[rank 1, worker 3] busy ratio: 0.849282
[rank 1, worker 4] busy ratio: 0.832936
[rank 1, worker 5] busy ratio: 0.827751
[rank 1, worker 6] busy ratio: 0.821429
[rank 1, worker 7] busy ratio: 0.844125
[rank 0, worker 4] busy ratio: 0.883333
[rank 0, worker 5] busy ratio: 0.888095
[rank 0, worker 6] busy ratio: 0.876485
[rank 0, worker 7] busy ratio: 0.900474
[rank 0, worker 8] busy ratio: 0.881235
[rank 0, worker 9] busy ratio: 0.883610
[rank 3, worker 9] busy ratio: 0.821002
[rank 3, worker 10] busy ratio: 0.801909
[rank 3, worker 11] busy ratio: 0.804762
[rank 3, worker 12] busy ratio: 0.802381
[rank 3, worker 13] busy ratio: 0.799523
[rank 3, worker 14] busy ratio: 0.828162
[rank 3, worker 15] busy ratio: 0.823810
[rank 3, worker 16] busy ratio: 0.814286
[rank 3, worker 17] busy ratio: 0.817102
[rank 3, worker 18] busy ratio: 0.806683
[rank 3, worker 19] busy ratio: 0.790476
[rank 3, worker 20] busy ratio: 0.792363
[rank 3, worker 21] busy ratio: 0.818616
[rank 3, worker 22] busy ratio: 0.802850
[rank 3, worker 23] busy ratio: 0.799523
[rank 3, worker 24] busy ratio: 0.802850
[rank 3, worker 25] busy ratio: 0.793349
[rank 3, worker 26] busy ratio: 0.775656
[rank 3, worker 27] busy ratio: 0.792857
[rank 3, worker 28] busy ratio: 0.778043
[rank 3, worker 29] busy ratio: 0.780952
[rank 3, worker 30] busy ratio: 0.764286
[rank 0, worker 10] busy ratio: 0.878860
[rank 0, worker 11] busy ratio: 0.883333
[rank 3, worker 31] busy ratio: 0.783848
[rank 3, worker 32] busy ratio: 0.789976
[rank 3, worker 33] busy ratio: 0.792363
[rank 1, worker 8] busy ratio: 0.837709
[rank 1, worker 9] busy ratio: 0.830952
[rank 1, worker 10] busy ratio: 0.816667
[rank 1, worker 11] busy ratio: 0.819048
[rank 1, worker 12] busy ratio: 0.821002
[rank 1, worker 13] busy ratio: 0.816667
[rank 1, worker 14] busy ratio: 0.841727
[rank 1, worker 15] busy ratio: 0.825359
[rank 1, worker 16] busy ratio: 0.827751
[rank 1, worker 17] busy ratio: 0.834928
[rank 1, worker 18] busy ratio: 0.813397
[rank 1, worker 19] busy ratio: 0.821002
[rank 1, worker 20] busy ratio: 0.809524
[rank 1, worker 21] busy ratio: 0.812352
[rank 1, worker 22] busy ratio: 0.830549
[rank 1, worker 23] busy ratio: 0.822542
[rank 1, worker 24] busy ratio: 0.806683
[rank 1, worker 25] busy ratio: 0.801435
[rank 1, worker 26] busy ratio: 0.808612
[rank 1, worker 27] busy ratio: 0.804296
[rank 1, worker 28] busy ratio: 0.801909
[rank 1, worker 29] busy ratio: 0.801435
[rank 1, worker 30] busy ratio: 0.799523
[rank 1, worker 31] busy ratio: 0.794258
[rank 0, worker 12] busy ratio: 0.881517
[rank 0, worker 13] busy ratio: 0.879147
[rank 0, worker 14] busy ratio: 0.885986
[rank 3, worker 34] busy ratio: 0.785203
[rank 3, worker 35] busy ratio: 0.755924
[rank 1, worker 32] busy ratio: 0.809069
[rank 1, worker 33] busy ratio: 0.807143
[rank 1, worker 34] busy ratio: 0.789976
[rank 0, worker 15] busy ratio: 0.876777
[rank 0, worker 16] busy ratio: 0.878860
[rank 3, worker 36] busy ratio: 0.764846
[rank 3, worker 37] busy ratio: 0.769048
[rank 1, worker 35] busy ratio: 0.776978
[rank 1, worker 36] busy ratio: 0.785203
[rank 0, worker 17] busy ratio: 0.874109
[rank 0, worker 18] busy ratio: 0.876485
[rank 2, worker 0] busy ratio: 0.947494
[rank 2, worker 1] busy ratio: 0.830952
[rank 2, worker 2] busy ratio: 0.847981
[rank 2, worker 3] busy ratio: 0.852381
[rank 2, worker 4] busy ratio: 0.823810
[rank 2, worker 5] busy ratio: 0.826190
[rank 2, worker 6] busy ratio: 0.821002
[rank 2, worker 7] busy ratio: 0.850356
[rank 2, worker 8] busy ratio: 0.849642
[rank 2, worker 9] busy ratio: 0.852029
[rank 3, worker 38] busy ratio: 0.768496
[rank 3, worker 39] busy ratio: 0.776190
[rank 1, worker 37] busy ratio: 0.792363
[rank 1, worker 38] busy ratio: 0.794749
[rank 0, worker 19] busy ratio: 0.883333
[rank 0, worker 20] busy ratio: 0.866667
[rank 0, worker 21] busy ratio: 0.878860
[rank 3, worker 40] busy ratio: 0.776190
[rank 3, worker 41] busy ratio: 0.766667
[rank 1, worker 39] busy ratio: 0.799523
[rank 1, worker 40] busy ratio: 0.794749
[rank 0, worker 22] busy ratio: 0.875895
[rank 0, worker 23] busy ratio: 0.871734
[rank 2, worker 10] busy ratio: 0.820574
[rank 2, worker 11] busy ratio: 0.823810
[rank 2, worker 12] busy ratio: 0.823389
[rank 2, worker 13] busy ratio: 0.807601
[rank 2, worker 14] busy ratio: 0.836105
[rank 2, worker 15] busy ratio: 0.830952
[rank 2, worker 16] busy ratio: 0.835714
[rank 2, worker 17] busy ratio: 0.831354
[rank 2, worker 18] busy ratio: 0.812352
[rank 2, worker 19] busy ratio: 0.814727
[rank 2, worker 20] busy ratio: 0.826603
[rank 2, worker 21] busy ratio: 0.834123
[rank 2, worker 22] busy ratio: 0.830144
[rank 2, worker 23] busy ratio: 0.821853
[rank 2, worker 24] busy ratio: 0.809524
[rank 2, worker 25] busy ratio: 0.809976
[rank 2, worker 26] busy ratio: 0.815166
[rank 2, worker 27] busy ratio: 0.819048
[rank 2, worker 28] busy ratio: 0.790476
[rank 2, worker 29] busy ratio: 0.790476
[rank 2, worker 30] busy ratio: 0.797619
[rank 2, worker 31] busy ratio: 0.797619
[rank 3, worker 42] busy ratio: 0.766667
[rank 3, worker 43] busy ratio: 0.773810
[rank 3, worker 44] busy ratio: 0.763723
[rank 3, worker 45] busy ratio: 0.754762
[rank 3, worker 46] busy ratio: 0.763723
[rank 3, worker 47] busy ratio: 0.769048
[rank 1, worker 41] busy ratio: 0.782816
[rank 1, worker 42] busy ratio: 0.786223
[rank 1, worker 43] busy ratio: 0.785714
[rank 1, worker 44] busy ratio: 0.789976
[rank 0, worker 24] busy ratio: 0.876485
[rank 0, worker 25] busy ratio: 0.881235
[rank 2, worker 32] busy ratio: 0.805226
[rank 2, worker 33] busy ratio: 0.800475
[rank 2, worker 34] busy ratio: 0.790974
[rank 3, worker 48] busy ratio: 0.786223
[rank 3, worker 49] busy ratio: 0.760095
[rank 1, worker 45] busy ratio: 0.789976
[rank 1, worker 46] busy ratio: 0.790476
[rank 1, worker 47] busy ratio: 0.807143
[rank 0, worker 26] busy ratio: 0.869668
[rank 0, worker 27] busy ratio: 0.883610
[rank 0, worker 28] busy ratio: 0.883610
[rank 2, worker 35] busy ratio: 0.792857
[rank 2, worker 36] busy ratio: 0.793349
[rank 3, worker 50] busy ratio: 0.770883
[rank 3, worker 51] busy ratio: 0.766667
[rank 1, worker 48] busy ratio: 0.792363
[rank 1, worker 49] busy ratio: 0.779904
[rank 0, worker 29] busy ratio: 0.890995
[rank 0, worker 30] busy ratio: 0.881235
[rank 2, worker 37] busy ratio: 0.792857
[rank 2, worker 38] busy ratio: 0.800000
[rank 3, worker 52] busy ratio: 0.776190
[rank 3, worker 53] busy ratio: 0.771971
[rank 1, worker 50] busy ratio: 0.814727
[rank 1, worker 51] busy ratio: 0.797136
[rank 0, worker 31] busy ratio: 0.892857
[rank 0, worker 32] busy ratio: 0.876190
[rank 2, worker 39] busy ratio: 0.803318
[rank 2, worker 40] busy ratio: 0.783848
[rank 3, worker 54] busy ratio: 0.764846
[rank 3, worker 55] busy ratio: 0.769048
[rank 1, worker 52] busy ratio: 0.799043
[rank 1, worker 53] busy ratio: 0.794749
[rank 0, worker 33] busy ratio: 0.883333
[rank 0, worker 34] busy ratio: 0.883610
[rank 0, worker 35] busy ratio: 0.883333
[rank 2, worker 41] busy ratio: 0.795238
[rank 2, worker 42] busy ratio: 0.797619
[rank 2, worker 43] busy ratio: 0.792857
[rank 2, worker 44] busy ratio: 0.794749
[rank 2, worker 45] busy ratio: 0.804762
[rank 1, worker 54] busy ratio: 0.792857
[rank 1, worker 55] busy ratio: 0.787589
[rank 0, worker 36] busy ratio: 0.883055
[rank 0, worker 37] busy ratio: 0.874109
[rank 2, worker 46] busy ratio: 0.798100
[rank 2, worker 47] busy ratio: 0.798100
[rank 0, worker 38] busy ratio: 0.883333
[rank 0, worker 39] busy ratio: 0.895238
[rank 2, worker 48] busy ratio: 0.797619
[rank 2, worker 49] busy ratio: 0.788095
[rank 0, worker 40] busy ratio: 0.878571
[rank 0, worker 41] busy ratio: 0.881517
[rank 0, worker 42] busy ratio: 0.890476
[rank 2, worker 50] busy ratio: 0.793349
[rank 2, worker 51] busy ratio: 0.800475
[rank 0, worker 43] busy ratio: 0.883610
[rank 0, worker 44] busy ratio: 0.883886
[rank 2, worker 52] busy ratio: 0.797619
[rank 2, worker 53] busy ratio: 0.790476
[rank 0, worker 45] busy ratio: 0.880668
[rank 0, worker 46] busy ratio: 0.874109
[rank 2, worker 54] busy ratio: 0.792857
[rank 2, worker 55] busy ratio: 0.793839
[rank 0, worker 47] busy ratio: 0.878860
[rank 0, worker 48] busy ratio: 0.883610
[rank 0, worker 49] busy ratio: 0.883886
[rank 0, worker 50] busy ratio: 0.880668
[rank 0, worker 51] busy ratio: 0.883610
[rank 0, worker 52] busy ratio: 0.888095
[rank 0, worker 53] busy ratio: 0.883886
[rank 0, worker 54] busy ratio: 0.876190
[rank 0, worker 55] busy ratio: 0.883610
Loop time of 4.20982 on 224 procs for 100 steps with 2048000 atoms

Performance: 10261.716 tau/day, 23.754 timesteps/s
4540.8% CPU use with 4 MPI tasks x 56 OpenMP threads

MPI task timing breakdown:
Section |  min time  |  avg time  |  max time  |%varavg| %total
---------------------------------------------------------------
Pair    | 1.0618     | 1.1213     | 1.2385     |   6.7 | 26.63
Neigh   | 0.22525    | 0.24077    | 0.2602     |   3.0 |  5.72
Comm    | 1.1842     | 1.6594     | 1.9768     |  22.6 | 39.42
Output  | 0.00013682 | 0.0036387  | 0.006644   |   4.2 |  0.09
Modify  | 0.057012   | 0.079539   | 0.13543    |  11.5 |  1.89
Other   |            | 1.105      |            |       | 26.25

Nlocal:    512000 ave 512063 max 511907 min
Histogram: 1 0 0 0 1 0 0 0 0 2
Nghost:    118534 ave 118636 max 118416 min
Histogram: 1 0 0 0 0 2 0 0 0 1
Neighs:    0 ave 0 max 0 min
Histogram: 4 0 0 0 0 0 0 0 0 0
FullNghs:  3.8457e+07 ave 3.8468e+07 max 3.84444e+07 min
Histogram: 1 0 0 0 0 1 1 0 0 1

Total # of neighbors = 153828000
Ave neighs/atom = 75.1113
Neighbor list builds = 5
Dangerous builds not checked
Total wall time: 0:00:06
