LAMMPS (7 Aug 2019)
KOKKOS mode is enabled (../kokkos.cpp:85)
  will use up to 0 GPU(s) per node
  using 56 OpenMP thread(s) per MPI task
Lattice spacing in x,y,z = 1.6796 1.6796 1.6796
Created orthogonal box = (0 0 0) to (403.103 403.103 403.103)
  1 by 2 by 2 MPI processor grid
Created 55296000 atoms
  create_atoms CPU = 15.458 secs
Neighbor list info ...
  update every 20 steps, delay 0 steps, check no
  max neighbors/atom: 2000, page size: 100000
  master list distance cutoff = 2.8
  ghost atom cutoff = 2.8
  binsize = 1.4, bins = 288 288 288
  1 neighbor lists, perpetual/occasional/extra = 1 0 0
  (1) pair lj/cut/kk, perpetual
      attributes: full, newton off, kokkos_device
      pair build: full/bin/kk/device
      stencil: full/bin/3d
      bin: kk/device
Setting up Verlet run ...
  Unit style    : lj
  Current step  : 0
  Time step     : 0.005
Per MPI rank memory allocation (min/avg/max) = 2.709e+04 | 2.709e+04 | 2.709e+04 Mbytes
Step Temp E_pair E_mol TotEng Press 
       0         1.44   -6.7733681            0   -4.6133681   -5.0196693 
     100   0.75942427   -5.7614518            0   -4.6223154   0.19008332 
[rank 0, worker 0] busy ratio: 0.973749
[rank 0, worker 1] busy ratio: 0.834625
[rank 0, worker 2] busy ratio: 0.843000
[rank 0, worker 3] busy ratio: 0.842652
[rank 1, worker 0] busy ratio: 0.974131
[rank 1, worker 1] busy ratio: 0.834656
[rank 1, worker 2] busy ratio: 0.838338
[rank 1, worker 3] busy ratio: 0.837016
[rank 1, worker 4] busy ratio: 0.819641
[rank 1, worker 5] busy ratio: 0.823229
[rank 1, worker 6] busy ratio: 0.827983
[rank 1, worker 7] busy ratio: 0.836796
[rank 1, worker 8] busy ratio: 0.835474
[rank 0, worker 4] busy ratio: 0.845326
[rank 0, worker 5] busy ratio: 0.839849
[rank 0, worker 6] busy ratio: 0.850907
[rank 0, worker 7] busy ratio: 0.837205
[rank 0, worker 8] busy ratio: 0.845834
[rank 0, worker 9] busy ratio: 0.845485
[rank 1, worker 9] busy ratio: 0.836041
[rank 1, worker 10] busy ratio: 0.823574
[rank 1, worker 11] busy ratio: 0.828296
[rank 1, worker 12] busy ratio: 0.829807
[rank 1, worker 13] busy ratio: 0.819675
[rank 1, worker 14] busy ratio: 0.831130
[rank 1, worker 15] busy ratio: 0.827039
[rank 1, worker 16] busy ratio: 0.829241
[rank 1, worker 17] busy ratio: 0.833994
[rank 1, worker 18] busy ratio: 0.827951
[rank 1, worker 19] busy ratio: 0.823640
[rank 1, worker 20] busy ratio: 0.830563
[rank 1, worker 21] busy ratio: 0.832893
[rank 1, worker 22] busy ratio: 0.831539
[rank 1, worker 23] busy ratio: 0.832704
[rank 1, worker 24] busy ratio: 0.825873
[rank 1, worker 25] busy ratio: 0.820019
[rank 1, worker 26] busy ratio: 0.824363
[rank 1, worker 27] busy ratio: 0.828706
[rank 1, worker 28] busy ratio: 0.790667
[rank 1, worker 29] busy ratio: 0.779751
[rank 1, worker 30] busy ratio: 0.794634
[rank 1, worker 31] busy ratio: 0.783610
[rank 1, worker 32] busy ratio: 0.787724
[rank 1, worker 33] busy ratio: 0.794373
[rank 0, worker 10] busy ratio: 0.848130
[rank 0, worker 11] busy ratio: 0.837741
[rank 0, worker 12] busy ratio: 0.843408
[rank 1, worker 34] busy ratio: 0.788142
[rank 1, worker 35] busy ratio: 0.788291
[rank 1, worker 36] busy ratio: 0.787724
[rank 0, worker 13] busy ratio: 0.844759
[rank 0, worker 14] busy ratio: 0.848725
[rank 2, worker 0] busy ratio: 0.977895
[rank 2, worker 1] busy ratio: 0.827286
[rank 2, worker 2] busy ratio: 0.826317
[rank 2, worker 3] busy ratio: 0.827039
[rank 2, worker 4] busy ratio: 0.808274
[rank 2, worker 5] busy ratio: 0.817066
[rank 2, worker 6] busy ratio: 0.820808
[rank 2, worker 7] busy ratio: 0.825085
[rank 2, worker 8] busy ratio: 0.829872
[rank 2, worker 9] busy ratio: 0.831257
[rank 2, worker 10] busy ratio: 0.810234
[rank 2, worker 11] busy ratio: 0.816997
[rank 2, worker 12] busy ratio: 0.819452
[rank 2, worker 13] busy ratio: 0.822285
[rank 2, worker 14] busy ratio: 0.828895
[rank 2, worker 15] busy ratio: 0.829337
[rank 2, worker 16] busy ratio: 0.830028
[rank 2, worker 17] busy ratio: 0.828739
[rank 2, worker 18] busy ratio: 0.817787
[rank 1, worker 37] busy ratio: 0.798678
[rank 1, worker 38] busy ratio: 0.797545
[rank 0, worker 15] busy ratio: 0.845355
[rank 0, worker 16] busy ratio: 0.846619
[rank 0, worker 17] busy ratio: 0.845703
[rank 2, worker 19] busy ratio: 0.815213
[rank 2, worker 20] busy ratio: 0.820242
[rank 2, worker 21] busy ratio: 0.828706
[rank 2, worker 22] busy ratio: 0.826095
[rank 2, worker 23] busy ratio: 0.825562
[rank 2, worker 24] busy ratio: 0.817409
[rank 2, worker 25] busy ratio: 0.824962
[rank 2, worker 26] busy ratio: 0.819263
[rank 2, worker 27] busy ratio: 0.822096
[rank 2, worker 28] busy ratio: 0.791730
[rank 2, worker 29] busy ratio: 0.793162
[rank 2, worker 30] busy ratio: 0.804229
[rank 2, worker 31] busy ratio: 0.800189
[rank 2, worker 32] busy ratio: 0.803662
[rank 2, worker 33] busy ratio: 0.803814
[rank 2, worker 34] busy ratio: 0.802870
[rank 2, worker 35] busy ratio: 0.799698
[rank 2, worker 36] busy ratio: 0.801548
[rank 2, worker 37] busy ratio: 0.809632
[rank 2, worker 38] busy ratio: 0.804984
[rank 2, worker 39] busy ratio: 0.793279
[rank 2, worker 40] busy ratio: 0.808912
[rank 2, worker 41] busy ratio: 0.798300
[rank 2, worker 42] busy ratio: 0.789951
[rank 2, worker 43] busy ratio: 0.800076
[rank 2, worker 44] busy ratio: 0.802681
[rank 2, worker 45] busy ratio: 0.791352
[rank 2, worker 46] busy ratio: 0.815367
[rank 2, worker 47] busy ratio: 0.794562
[rank 2, worker 48] busy ratio: 0.808157
[rank 2, worker 49] busy ratio: 0.806872
[rank 2, worker 50] busy ratio: 0.807779
[rank 2, worker 51] busy ratio: 0.803248
[rank 2, worker 52] busy ratio: 0.806872
[rank 2, worker 53] busy ratio: 0.808535
[rank 2, worker 54] busy ratio: 0.786402
[rank 2, worker 55] busy ratio: 0.713665
[rank 1, worker 39] busy ratio: 0.796978
[rank 1, worker 40] busy ratio: 0.797356
[rank 0, worker 18] busy ratio: 0.845674
[rank 0, worker 19] busy ratio: 0.843059
[rank 1, worker 41] busy ratio: 0.793618
[rank 1, worker 42] busy ratio: 0.785458
[rank 0, worker 20] busy ratio: 0.851852
[rank 0, worker 21] busy ratio: 0.845645
[rank 1, worker 43] busy ratio: 0.790219
[rank 1, worker 44] busy ratio: 0.794712
[rank 1, worker 45] busy ratio: 0.801926
[rank 1, worker 46] busy ratio: 0.802304
[rank 1, worker 47] busy ratio: 0.792595
[rank 0, worker 22] busy ratio: 0.845703
[rank 0, worker 23] busy ratio: 0.845892
[rank 0, worker 24] busy ratio: 0.847157
[rank 1, worker 48] busy ratio: 0.796184
[rank 1, worker 49] busy ratio: 0.790816
[rank 1, worker 50] busy ratio: 0.775028
[rank 0, worker 25] busy ratio: 0.850453
[rank 0, worker 26] busy ratio: 0.846997
[rank 1, worker 51] busy ratio: 0.797923
[rank 1, worker 52] busy ratio: 0.801926
[rank 0, worker 27] busy ratio: 0.847912
[rank 0, worker 28] busy ratio: 0.828895
[rank 1, worker 53] busy ratio: 0.787535
[rank 1, worker 54] busy ratio: 0.783758
[rank 0, worker 29] busy ratio: 0.830153
[rank 0, worker 30] busy ratio: 0.834309
[rank 0, worker 31] busy ratio: 0.840604
[rank 1, worker 55] busy ratio: 0.677822
[rank 0, worker 32] busy ratio: 0.839033
[rank 0, worker 33] busy ratio: 0.838844
[rank 0, worker 34] busy ratio: 0.839660
[rank 0, worker 35] busy ratio: 0.845703
[rank 0, worker 36] busy ratio: 0.843785
[rank 0, worker 37] busy ratio: 0.836449
[rank 0, worker 38] busy ratio: 0.836827
[rank 0, worker 39] busy ratio: 0.826563
[rank 0, worker 40] busy ratio: 0.843059
[rank 0, worker 41] busy ratio: 0.844570
[rank 0, worker 42] busy ratio: 0.838496
[rank 0, worker 43] busy ratio: 0.825685
[rank 0, worker 44] busy ratio: 0.840574
[rank 3, worker 0] busy ratio: 0.968827
[rank 3, worker 1] busy ratio: 0.859248
[rank 3, worker 2] busy ratio: 0.846648
[rank 3, worker 3] busy ratio: 0.856307
[rank 3, worker 4] busy ratio: 0.825241
[rank 3, worker 5] busy ratio: 0.808993
[rank 3, worker 6] busy ratio: 0.827671
[rank 3, worker 7] busy ratio: 0.857602
[rank 3, worker 8] busy ratio: 0.857440
[rank 0, worker 45] busy ratio: 0.838277
[rank 0, worker 46] busy ratio: 0.836419
[rank 0, worker 47] busy ratio: 0.834687
[rank 0, worker 48] busy ratio: 0.835536
[rank 0, worker 49] busy ratio: 0.837960
[rank 3, worker 9] busy ratio: 0.858033
[rank 3, worker 10] busy ratio: 0.815864
[rank 3, worker 11] busy ratio: 0.811331
[rank 3, worker 12] busy ratio: 0.810387
[rank 3, worker 13] busy ratio: 0.820053
[rank 3, worker 14] busy ratio: 0.856118
[rank 3, worker 15] busy ratio: 0.852558
[rank 3, worker 16] busy ratio: 0.860272
[rank 3, worker 17] busy ratio: 0.858195
[rank 3, worker 18] busy ratio: 0.812689
[rank 3, worker 19] busy ratio: 0.820242
[rank 3, worker 20] busy ratio: 0.804569
[rank 3, worker 21] busy ratio: 0.854202
[rank 3, worker 22] busy ratio: 0.855174
[rank 3, worker 23] busy ratio: 0.859464
[rank 3, worker 24] busy ratio: 0.813633
[rank 3, worker 25] busy ratio: 0.817186
[rank 3, worker 26] busy ratio: 0.817409
[rank 3, worker 27] busy ratio: 0.815486
[rank 3, worker 28] busy ratio: 0.777820
[rank 3, worker 29] busy ratio: 0.784136
[rank 3, worker 30] busy ratio: 0.793429
[rank 3, worker 31] busy ratio: 0.763506
[rank 3, worker 32] busy ratio: 0.791313
[rank 3, worker 33] busy ratio: 0.800378
[rank 0, worker 50] busy ratio: 0.838496
[rank 0, worker 51] busy ratio: 0.840355
[rank 3, worker 34] busy ratio: 0.792257
[rank 3, worker 35] busy ratio: 0.799849
[rank 0, worker 52] busy ratio: 0.838527
[rank 0, worker 53] busy ratio: 0.836669
[rank 0, worker 54] busy ratio: 0.827541
[rank 3, worker 36] busy ratio: 0.799433
[rank 3, worker 37] busy ratio: 0.796978
[rank 0, worker 55] busy ratio: 0.742533
[rank 3, worker 38] busy ratio: 0.792446
[rank 3, worker 39] busy ratio: 0.799433
[rank 3, worker 40] busy ratio: 0.802152
[rank 3, worker 41] busy ratio: 0.795467
[rank 3, worker 42] busy ratio: 0.774084
[rank 3, worker 43] busy ratio: 0.786294
[rank 3, worker 44] busy ratio: 0.795467
[rank 3, worker 45] busy ratio: 0.804229
[rank 3, worker 46] busy ratio: 0.791541
[rank 3, worker 47] busy ratio: 0.805891
[rank 3, worker 48] busy ratio: 0.793807
[rank 3, worker 49] busy ratio: 0.808535
[rank 3, worker 50] busy ratio: 0.796223
[rank 3, worker 51] busy ratio: 0.786213
[rank 3, worker 52] busy ratio: 0.802152
[rank 3, worker 53] busy ratio: 0.790179
[rank 3, worker 54] busy ratio: 0.785080
[rank 3, worker 55] busy ratio: 0.706105
Loop time of 52.9703 on 224 procs for 100 steps with 55296000 atoms

Performance: 815.551 tau/day, 1.888 timesteps/s
4544.0% CPU use with 4 MPI tasks x 56 OpenMP threads

MPI task timing breakdown:
Section |  min time  |  avg time  |  max time  |%varavg| %total
---------------------------------------------------------------
Pair    | 29.821     | 30.242     | 30.552     |   5.0 | 57.09
Neigh   | 6.6038     | 6.9241     | 7.2891     |  10.0 | 13.07
Comm    | 5.3589     | 7.127      | 8.3406     |  46.8 | 13.45
Output  | 0.0036637  | 0.07611    | 0.17835    |  25.9 |  0.14
Modify  | 1.615      | 1.8655     | 2.2108     |  16.0 |  3.52
Other   |            | 6.736      |            |       | 12.72

Nlocal:    1.3824e+07 ave 1.38247e+07 max 1.38235e+07 min
Histogram: 1 1 0 0 0 0 1 0 0 1
Nghost:    1.01912e+06 ave 1.01965e+06 max 1.0184e+06 min
Histogram: 1 0 0 0 1 0 0 0 1 1
Neighs:    0 ave 0 max 0 min
Histogram: 4 0 0 0 0 0 0 0 0 0
FullNghs:  1.0383e+09 ave 1.03837e+09 max 1.03824e+09 min
Histogram: 1 0 1 0 0 1 0 0 0 1

Total # of neighbors = 4.1532e+09
Ave neighs/atom = 75.1085
Neighbor list builds = 5
Dangerous builds not checked
Total wall time: 0:01:15
