LAMMPS (7 Aug 2019)
KOKKOS mode is enabled (../kokkos.cpp:85)
  will use up to 0 GPU(s) per node
  using 56 OpenMP thread(s) per MPI task
Lattice spacing in x,y,z = 1.6796 1.6796 1.6796
Created orthogonal box = (0 0 0) to (335.919 335.919 335.919)
  1 by 2 by 2 MPI processor grid
Created 32000000 atoms
  create_atoms CPU = 10.2861 secs
Neighbor list info ...
  update every 20 steps, delay 0 steps, check no
  max neighbors/atom: 2000, page size: 100000
  master list distance cutoff = 2.8
  ghost atom cutoff = 2.8
  binsize = 1.4, bins = 240 240 240
  1 neighbor lists, perpetual/occasional/extra = 1 0 0
  (1) pair lj/cut/kk, perpetual
      attributes: full, newton off, kokkos_device
      pair build: full/bin/kk/device
      stencil: full/bin/3d
      bin: kk/device
Setting up Verlet run ...
  Unit style    : lj
  Current step  : 0
  Time step     : 0.005
Per MPI rank memory allocation (min/avg/max) = 1.584e+04 | 1.584e+04 | 1.584e+04 Mbytes
Step Temp E_pair E_mol TotEng Press 
       0         1.44   -6.7733681            0   -4.6133681   -5.0196693 
     100   0.75941602   -5.7614399            0   -4.6223159   0.19027589 
[rank 1, worker 0] busy ratio: 0.990613
[rank 1, worker 1] busy ratio: 0.852570
[rank 1, worker 2] busy ratio: 0.854711
[rank 1, worker 3] busy ratio: 0.856178
[rank 1, worker 4] busy ratio: 0.802643
[rank 1, worker 5] busy ratio: 0.794308
[rank 1, worker 6] busy ratio: 0.792021
[rank 1, worker 7] busy ratio: 0.863010
[rank 1, worker 8] busy ratio: 0.863636
[rank 0, worker 0] busy ratio: 0.992371
[rank 0, worker 1] busy ratio: 0.846063
[rank 0, worker 2] busy ratio: 0.841843
[rank 0, worker 3] busy ratio: 0.846876
[rank 0, worker 4] busy ratio: 0.804577
[rank 0, worker 5] busy ratio: 0.794834
[rank 0, worker 6] busy ratio: 0.792254
[rank 0, worker 7] busy ratio: 0.855089
[rank 0, worker 8] busy ratio: 0.850983
[rank 0, worker 9] busy ratio: 0.847169
[rank 0, worker 10] busy ratio: 0.802230
[rank 0, worker 11] busy ratio: 0.792254
[rank 0, worker 12] busy ratio: 0.798768
[rank 0, worker 13] busy ratio: 0.794601
[rank 0, worker 14] busy ratio: 0.859448
[rank 0, worker 15] busy ratio: 0.859824
[rank 0, worker 16] busy ratio: 0.862089
[rank 0, worker 17] busy ratio: 0.866276
[rank 0, worker 18] busy ratio: 0.800117
[rank 0, worker 19] busy ratio: 0.789026
[rank 0, worker 20] busy ratio: 0.796188
[rank 0, worker 21] busy ratio: 0.866315
[rank 0, worker 22] busy ratio: 0.870381
[rank 0, worker 23] busy ratio: 0.867703
[rank 0, worker 24] busy ratio: 0.802875
[rank 0, worker 25] busy ratio: 0.794014
[rank 2, worker 0] busy ratio: 0.995305
[rank 2, worker 1] busy ratio: 0.844007
[rank 2, worker 2] busy ratio: 0.853623
[rank 2, worker 3] busy ratio: 0.849809
[rank 2, worker 4] busy ratio: 0.797242
[rank 2, worker 5] busy ratio: 0.793781
[rank 2, worker 6] busy ratio: 0.792840
[rank 2, worker 7] busy ratio: 0.855089
[rank 2, worker 8] busy ratio: 0.863303
[rank 2, worker 9] busy ratio: 0.859783
[rank 2, worker 10] busy ratio: 0.792608
[rank 2, worker 11] busy ratio: 0.796655
[rank 2, worker 12] busy ratio: 0.799002
[rank 2, worker 13] busy ratio: 0.793073
[rank 2, worker 14] busy ratio: 0.862383
[rank 2, worker 15] busy ratio: 0.868877
[rank 2, worker 16] busy ratio: 0.863930
[rank 2, worker 17] busy ratio: 0.870050
[rank 2, worker 18] busy ratio: 0.793427
[rank 2, worker 19] busy ratio: 0.794894
[rank 0, worker 26] busy ratio: 0.796948
[rank 0, worker 27] busy ratio: 0.793781
[rank 1, worker 9] busy ratio: 0.865610
[rank 1, worker 10] busy ratio: 0.798650
[rank 1, worker 11] busy ratio: 0.790725
[rank 1, worker 12] busy ratio: 0.790554
[rank 1, worker 13] busy ratio: 0.791960
[rank 1, worker 14] busy ratio: 0.864770
[rank 1, worker 15] busy ratio: 0.865063
[rank 1, worker 16] busy ratio: 0.871848
[rank 1, worker 17] busy ratio: 0.876174
[rank 1, worker 18] busy ratio: 0.792254
[rank 1, worker 19] busy ratio: 0.794955
[rank 1, worker 20] busy ratio: 0.792608
[rank 1, worker 21] busy ratio: 0.874157
[rank 1, worker 22] busy ratio: 0.870050
[rank 1, worker 23] busy ratio: 0.870599
[rank 1, worker 24] busy ratio: 0.789674
[rank 1, worker 25] busy ratio: 0.791080
[rank 1, worker 26] busy ratio: 0.793134
[rank 1, worker 27] busy ratio: 0.788732
[rank 1, worker 28] busy ratio: 0.721374
[rank 1, worker 29] busy ratio: 0.703638
[rank 1, worker 30] busy ratio: 0.699237
[rank 2, worker 20] busy ratio: 0.790493
[rank 2, worker 21] busy ratio: 0.867371
[rank 2, worker 22] busy ratio: 0.866236
[rank 2, worker 23] busy ratio: 0.870088
[rank 2, worker 24] busy ratio: 0.793194
[rank 2, worker 25] busy ratio: 0.798709
[rank 2, worker 26] busy ratio: 0.798122
[rank 2, worker 27] busy ratio: 0.798768
[rank 2, worker 28] busy ratio: 0.725991
[rank 2, worker 29] busy ratio: 0.702084
[rank 2, worker 30] busy ratio: 0.701878
[rank 2, worker 31] busy ratio: 0.711770
[rank 2, worker 32] busy ratio: 0.695716
[rank 2, worker 33] busy ratio: 0.737969
[rank 2, worker 34] busy ratio: 0.679871
[rank 2, worker 35] busy ratio: 0.709592
[rank 2, worker 36] busy ratio: 0.722418
[rank 2, worker 37] busy ratio: 0.696685
[rank 2, worker 38] busy ratio: 0.685538
[rank 2, worker 39] busy ratio: 0.683099
[rank 2, worker 40] busy ratio: 0.718979
[rank 2, worker 41] busy ratio: 0.672045
[rank 2, worker 42] busy ratio: 0.696507
[rank 2, worker 43] busy ratio: 0.709507
[rank 2, worker 44] busy ratio: 0.687408
[rank 2, worker 45] busy ratio: 0.691112
[rank 2, worker 46] busy ratio: 0.687500
[rank 2, worker 47] busy ratio: 0.671948
[rank 2, worker 48] busy ratio: 0.686234
[rank 2, worker 49] busy ratio: 0.721538
[rank 2, worker 50] busy ratio: 0.700117
[rank 2, worker 51] busy ratio: 0.697975
[rank 2, worker 52] busy ratio: 0.695308
[rank 2, worker 53] busy ratio: 0.691698
[rank 2, worker 54] busy ratio: 0.673410
[rank 2, worker 55] busy ratio: 0.705106
[rank 0, worker 28] busy ratio: 0.713447
[rank 0, worker 29] busy ratio: 0.671756
[rank 0, worker 30] busy ratio: 0.684072
[rank 1, worker 31] busy ratio: 0.693075
[rank 1, worker 32] busy ratio: 0.676255
[rank 1, worker 33] busy ratio: 0.668134
[rank 1, worker 34] busy ratio: 0.668721
[rank 1, worker 35] busy ratio: 0.690728
[rank 1, worker 36] busy ratio: 0.684658
[rank 1, worker 37] busy ratio: 0.682805
[rank 1, worker 38] busy ratio: 0.690232
[rank 1, worker 39] busy ratio: 0.663831
[rank 1, worker 40] busy ratio: 0.677911
[rank 1, worker 41] busy ratio: 0.685739
[rank 1, worker 42] busy ratio: 0.694925
[rank 1, worker 43] busy ratio: 0.688472
[rank 1, worker 44] busy ratio: 0.674685
[rank 1, worker 45] busy ratio: 0.673021
[rank 1, worker 46] busy ratio: 0.665786
[rank 1, worker 47] busy ratio: 0.671559
[rank 1, worker 48] busy ratio: 0.684566
[rank 1, worker 49] busy ratio: 0.685630
[rank 1, worker 50] busy ratio: 0.691698
[rank 1, worker 51] busy ratio: 0.687500
[rank 1, worker 52] busy ratio: 0.679577
[rank 1, worker 53] busy ratio: 0.655617
[rank 1, worker 54] busy ratio: 0.661778
[rank 1, worker 55] busy ratio: 0.693392
[rank 0, worker 31] busy ratio: 0.697565
[rank 0, worker 32] busy ratio: 0.675565
[rank 3, worker 0] busy ratio: 0.993545
[rank 3, worker 1] busy ratio: 0.832893
[rank 3, worker 2] busy ratio: 0.826878
[rank 3, worker 3] busy ratio: 0.830692
[rank 3, worker 4] busy ratio: 0.805401
[rank 3, worker 5] busy ratio: 0.792425
[rank 3, worker 6] busy ratio: 0.792314
[rank 3, worker 7] busy ratio: 0.836854
[rank 0, worker 33] busy ratio: 0.712232
[rank 0, worker 34] busy ratio: 0.681432
[rank 3, worker 8] busy ratio: 0.836118
[rank 3, worker 9] busy ratio: 0.835191
[rank 3, worker 10] busy ratio: 0.792547
[rank 3, worker 11] busy ratio: 0.796889
[rank 3, worker 12] busy ratio: 0.786448
[rank 3, worker 13] busy ratio: 0.788439
[rank 3, worker 14] busy ratio: 0.834311
[rank 3, worker 15] busy ratio: 0.829032
[rank 3, worker 16] busy ratio: 0.836316
[rank 0, worker 35] busy ratio: 0.684566
[rank 0, worker 36] busy ratio: 0.696392
[rank 3, worker 17] busy ratio: 0.841349
[rank 3, worker 18] busy ratio: 0.790554
[rank 3, worker 19] busy ratio: 0.796362
[rank 0, worker 37] busy ratio: 0.683392
[rank 0, worker 38] busy ratio: 0.673026
[rank 3, worker 20] busy ratio: 0.793781
[rank 3, worker 21] busy ratio: 0.845996
[rank 3, worker 22] busy ratio: 0.845996
[rank 0, worker 39] busy ratio: 0.679483
[rank 0, worker 40] busy ratio: 0.696009
[rank 3, worker 23] busy ratio: 0.840762
[rank 3, worker 24] busy ratio: 0.788501
[rank 3, worker 25] busy ratio: 0.782928
[rank 0, worker 41] busy ratio: 0.665591
[rank 0, worker 42] busy ratio: 0.676738
[rank 3, worker 26] busy ratio: 0.785861
[rank 3, worker 27] busy ratio: 0.776995
[rank 0, worker 43] busy ratio: 0.690637
[rank 0, worker 44] busy ratio: 0.682605
[rank 3, worker 28] busy ratio: 0.767831
[rank 3, worker 29] busy ratio: 0.758803
[rank 3, worker 30] busy ratio: 0.756749
[rank 0, worker 45] busy ratio: 0.685060
[rank 0, worker 46] busy ratio: 0.684473
[rank 0, worker 47] busy ratio: 0.664514
[rank 0, worker 48] busy ratio: 0.677523
[rank 0, worker 49] busy ratio: 0.703345
[rank 0, worker 50] busy ratio: 0.675953
[rank 0, worker 51] busy ratio: 0.687793
[rank 0, worker 52] busy ratio: 0.703552
[rank 0, worker 53] busy ratio: 0.683099
[rank 3, worker 31] busy ratio: 0.754767
[rank 3, worker 32] busy ratio: 0.752420
[rank 3, worker 33] busy ratio: 0.744793
[rank 0, worker 54] busy ratio: 0.659138
[rank 0, worker 55] busy ratio: 0.696712
[rank 3, worker 34] busy ratio: 0.750440
[rank 3, worker 35] busy ratio: 0.755425
[rank 3, worker 36] busy ratio: 0.752127
[rank 3, worker 37] busy ratio: 0.749267
[rank 3, worker 38] busy ratio: 0.738556
[rank 3, worker 39] busy ratio: 0.745012
[rank 3, worker 40] busy ratio: 0.748313
[rank 3, worker 41] busy ratio: 0.746111
[rank 3, worker 42] busy ratio: 0.744862
[rank 3, worker 43] busy ratio: 0.750953
[rank 3, worker 44] busy ratio: 0.745380
[rank 3, worker 45] busy ratio: 0.751028
[rank 3, worker 46] busy ratio: 0.734897
[rank 3, worker 47] busy ratio: 0.745012
[rank 3, worker 48] busy ratio: 0.742077
[rank 3, worker 49] busy ratio: 0.752420
[rank 3, worker 50] busy ratio: 0.755353
[rank 3, worker 51] busy ratio: 0.749560
[rank 3, worker 52] busy ratio: 0.738773
[rank 3, worker 53] busy ratio: 0.736580
[rank 3, worker 54] busy ratio: 0.745967
[rank 3, worker 55] busy ratio: 0.719190
Loop time of 34.1026 on 224 procs for 100 steps with 32000000 atoms

Performance: 1266.764 tau/day, 2.932 timesteps/s
4249.6% CPU use with 4 MPI tasks x 56 OpenMP threads

MPI task timing breakdown:
Section |  min time  |  avg time  |  max time  |%varavg| %total
---------------------------------------------------------------
Pair    | 23.166     | 24.251     | 24.64      |  12.7 | 71.11
Neigh   | 3.6636     | 3.7972     | 3.8993     |   4.4 | 11.13
Comm    | 3.1111     | 3.485      | 4.1802     |  22.2 | 10.22
Output  | 0.0020602  | 0.1182     | 0.18914    |  20.5 |  0.35
Modify  | 0.9638     | 1.0848     | 1.1979     |   8.0 |  3.18
Other   |            | 1.366      |            |       |  4.01

Nlocal:    8e+06 ave 8.00017e+06 max 7.99976e+06 min
Histogram: 1 0 0 0 0 0 2 0 0 1
Nghost:    711029 ave 711274 max 710914 min
Histogram: 2 0 1 0 0 0 0 0 0 1
Neighs:    0 ave 0 max 0 min
Histogram: 4 0 0 0 0 0 0 0 0 0
FullNghs:  6.00869e+08 ave 6.00884e+08 max 6.0085e+08 min
Histogram: 1 0 0 0 0 1 1 0 0 1

Total # of neighbors = 2.40348e+09
Ave neighs/atom = 75.1087
Neighbor list builds = 5
Dangerous builds not checked
Total wall time: 0:00:48
