LAMMPS (7 Aug 2019)
KOKKOS mode is enabled (../kokkos.cpp:85)
  will use up to 0 GPU(s) per node
  using 56 OpenMP thread(s) per MPI task
Lattice spacing in x,y,z = 1.6796 1.6796 1.6796
Created orthogonal box = (0 0 0) to (134.368 134.368 134.368)
  1 by 2 by 2 MPI processor grid
Created 2048000 atoms
  create_atoms CPU = 1.43715 secs
Neighbor list info ...
  update every 20 steps, delay 0 steps, check no
  max neighbors/atom: 2000, page size: 100000
  master list distance cutoff = 2.8
  ghost atom cutoff = 2.8
  binsize = 1.4, bins = 96 96 96
  1 neighbor lists, perpetual/occasional/extra = 1 0 0
  (1) pair lj/cut/kk, perpetual
      attributes: full, newton off, kokkos_device
      pair build: full/bin/kk/device
      stencil: full/bin/3d
      bin: kk/device
Setting up Verlet run ...
  Unit style    : lj
  Current step  : 0
  Time step     : 0.005
Per MPI rank memory allocation (min/avg/max) = 1166 | 1166 | 1166 Mbytes
Step Temp E_pair E_mol TotEng Press 
       0         1.44   -6.7733681            0   -4.6133691   -5.0196699 
     100   0.75921977   -5.7611315            0   -4.6223024   0.19208802 
[rank 0, worker 0] busy ratio: 0.932759
[rank 0, worker 1] busy ratio: 0.736934
[rank 0, worker 2] busy ratio: 0.744348
[rank 0, worker 3] busy ratio: 0.721254
[rank 0, worker 4] busy ratio: 0.747826
[rank 0, worker 5] busy ratio: 0.753043
[rank 0, worker 6] busy ratio: 0.722513
[rank 0, worker 7] busy ratio: 0.736934
[rank 0, worker 8] busy ratio: 0.749565
[rank 0, worker 9] busy ratio: 0.725217
[rank 0, worker 10] busy ratio: 0.726957
[rank 0, worker 11] busy ratio: 0.729494
[rank 0, worker 12] busy ratio: 0.740418
[rank 0, worker 13] busy ratio: 0.733913
[rank 0, worker 14] busy ratio: 0.733913
[rank 0, worker 15] busy ratio: 0.725694
[rank 0, worker 16] busy ratio: 0.720000
[rank 0, worker 17] busy ratio: 0.720768
[rank 0, worker 18] busy ratio: 0.710069
[rank 0, worker 19] busy ratio: 0.713043
[rank 0, worker 20] busy ratio: 0.702091
[rank 0, worker 21] busy ratio: 0.712544
[rank 0, worker 22] busy ratio: 0.722222
[rank 0, worker 23] busy ratio: 0.723478
[rank 0, worker 24] busy ratio: 0.688153
[rank 0, worker 25] busy ratio: 0.706087
[rank 0, worker 26] busy ratio: 0.685764
[rank 0, worker 27] busy ratio: 0.723478
[rank 0, worker 28] busy ratio: 0.737847
[rank 0, worker 29] busy ratio: 0.714783
[rank 0, worker 30] busy ratio: 0.720000
[rank 0, worker 31] busy ratio: 0.721254
[rank 0, worker 32] busy ratio: 0.713542
[rank 0, worker 33] busy ratio: 0.718750
[rank 0, worker 34] busy ratio: 0.704348
[rank 0, worker 35] busy ratio: 0.718750
[rank 0, worker 36] busy ratio: 0.706087
[rank 0, worker 37] busy ratio: 0.714783
[rank 0, worker 38] busy ratio: 0.692174
[rank 0, worker 39] busy ratio: 0.760000
[rank 0, worker 40] busy ratio: 0.722222
[rank 0, worker 41] busy ratio: 0.700870
[rank 0, worker 42] busy ratio: 0.703125
[rank 0, worker 43] busy ratio: 0.735652
[rank 0, worker 44] busy ratio: 0.708333
[rank 0, worker 45] busy ratio: 0.713542
[rank 0, worker 46] busy ratio: 0.700348
[rank 0, worker 47] busy ratio: 0.712544
[rank 0, worker 48] busy ratio: 0.714783
[rank 0, worker 49] busy ratio: 0.697917
[rank 0, worker 50] busy ratio: 0.712544
[rank 0, worker 51] busy ratio: 0.686957
[rank 0, worker 52] busy ratio: 0.677083
[rank 0, worker 53] busy ratio: 0.699130
[rank 0, worker 54] busy ratio: 0.696864
[rank 3, worker 0] busy ratio: 0.932759
[rank 3, worker 1] busy ratio: 0.736934
[rank 3, worker 2] busy ratio: 0.748691
[rank 3, worker 3] busy ratio: 0.742609
[rank 3, worker 4] busy ratio: 0.762153
[rank 3, worker 5] busy ratio: 0.721254
[rank 3, worker 6] busy ratio: 0.709565
[rank 3, worker 7] busy ratio: 0.768696
[rank 3, worker 8] busy ratio: 0.750871
[rank 3, worker 9] busy ratio: 0.746528
[rank 3, worker 10] busy ratio: 0.718261
[rank 3, worker 11] busy ratio: 0.732639
[rank 3, worker 12] busy ratio: 0.717014
[rank 3, worker 13] busy ratio: 0.723958
[rank 3, worker 14] busy ratio: 0.761739
[rank 0, worker 55] busy ratio: 0.706087
[rank 3, worker 15] busy ratio: 0.747387
[rank 3, worker 16] busy ratio: 0.746087
[rank 3, worker 17] busy ratio: 0.728696
[rank 3, worker 18] busy ratio: 0.714783
[rank 3, worker 19] busy ratio: 0.706087
[rank 3, worker 20] busy ratio: 0.703125
[rank 3, worker 21] busy ratio: 0.742609
[rank 3, worker 22] busy ratio: 0.722222
[rank 3, worker 23] busy ratio: 0.723478
[rank 3, worker 24] busy ratio: 0.699130
[rank 3, worker 25] busy ratio: 0.700348
[rank 3, worker 26] busy ratio: 0.701906
[rank 3, worker 27] busy ratio: 0.695652
[rank 3, worker 28] busy ratio: 0.686411
[rank 3, worker 29] busy ratio: 0.661458
[rank 3, worker 30] busy ratio: 0.655052
[rank 3, worker 31] busy ratio: 0.711304
[rank 3, worker 32] busy ratio: 0.685217
[rank 3, worker 33] busy ratio: 0.675958
[rank 3, worker 34] busy ratio: 0.662609
[rank 3, worker 35] busy ratio: 0.662630
[rank 3, worker 36] busy ratio: 0.640625
[rank 3, worker 37] busy ratio: 0.659130
[rank 3, worker 38] busy ratio: 0.664348
[rank 3, worker 39] busy ratio: 0.660870
[rank 3, worker 40] busy ratio: 0.680556
[rank 3, worker 41] busy ratio: 0.671304
[rank 3, worker 42] busy ratio: 0.646957
[rank 3, worker 43] busy ratio: 0.674216
[rank 3, worker 44] busy ratio: 0.644097
[rank 3, worker 45] busy ratio: 0.641739
[rank 3, worker 46] busy ratio: 0.654514
[rank 3, worker 47] busy ratio: 0.659722
[rank 3, worker 48] busy ratio: 0.656250
[rank 3, worker 49] busy ratio: 0.661458
[rank 3, worker 50] busy ratio: 0.651042
[rank 3, worker 51] busy ratio: 0.645833
[rank 3, worker 52] busy ratio: 0.639515
[rank 3, worker 53] busy ratio: 0.657391
[rank 3, worker 54] busy ratio: 0.649826
[rank 3, worker 55] busy ratio: 0.661458
[rank 1, worker 0] busy ratio: 0.953043
[rank 1, worker 1] busy ratio: 0.731707
[rank 1, worker 2] busy ratio: 0.731239
[rank 1, worker 3] busy ratio: 0.743056
[rank 1, worker 4] busy ratio: 0.743056
[rank 1, worker 5] busy ratio: 0.711304
[rank 1, worker 6] busy ratio: 0.722704
[rank 1, worker 7] busy ratio: 0.747387
[rank 1, worker 8] busy ratio: 0.753043
[rank 1, worker 9] busy ratio: 0.751304
[rank 1, worker 10] busy ratio: 0.718750
[rank 1, worker 11] busy ratio: 0.713542
[rank 1, worker 12] busy ratio: 0.720486
[rank 1, worker 13] busy ratio: 0.717014
[rank 1, worker 14] busy ratio: 0.749565
[rank 1, worker 15] busy ratio: 0.739583
[rank 1, worker 16] busy ratio: 0.729167
[rank 1, worker 17] busy ratio: 0.729167
[rank 1, worker 18] busy ratio: 0.694444
[rank 1, worker 19] busy ratio: 0.710069
[rank 1, worker 20] busy ratio: 0.703125
[rank 1, worker 21] busy ratio: 0.728696
[rank 1, worker 22] busy ratio: 0.720000
[rank 1, worker 23] busy ratio: 0.733102
[rank 1, worker 24] busy ratio: 0.698440
[rank 1, worker 25] busy ratio: 0.703125
[rank 1, worker 26] busy ratio: 0.682292
[rank 1, worker 27] busy ratio: 0.677083
[rank 1, worker 28] busy ratio: 0.663194
[rank 1, worker 29] busy ratio: 0.653913
[rank 1, worker 30] busy ratio: 0.636678
[rank 1, worker 31] busy ratio: 0.633681
[rank 1, worker 32] busy ratio: 0.655652
[rank 1, worker 33] busy ratio: 0.652174
[rank 1, worker 34] busy ratio: 0.648180
[rank 1, worker 35] busy ratio: 0.641248
[rank 1, worker 36] busy ratio: 0.634315
[rank 1, worker 37] busy ratio: 0.628028
[rank 1, worker 38] busy ratio: 0.663194
[rank 1, worker 39] busy ratio: 0.651646
[rank 1, worker 40] busy ratio: 0.646447
[rank 1, worker 41] busy ratio: 0.659170
[rank 1, worker 42] busy ratio: 0.645329
[rank 1, worker 43] busy ratio: 0.644714
[rank 1, worker 44] busy ratio: 0.629116
[rank 1, worker 45] busy ratio: 0.627383
[rank 1, worker 46] busy ratio: 0.651646
[rank 1, worker 47] busy ratio: 0.644714
[rank 1, worker 48] busy ratio: 0.638408
[rank 1, worker 49] busy ratio: 0.630849
[rank 1, worker 50] busy ratio: 0.670139
[rank 1, worker 51] busy ratio: 0.637153
[rank 1, worker 52] busy ratio: 0.645833
[rank 1, worker 53] busy ratio: 0.638889
[rank 1, worker 54] busy ratio: 0.639515
[rank 1, worker 55] busy ratio: 0.652249
[rank 2, worker 0] busy ratio: 0.941379
[rank 2, worker 1] busy ratio: 0.747387
[rank 2, worker 2] busy ratio: 0.739130
[rank 2, worker 3] busy ratio: 0.757417
[rank 2, worker 4] busy ratio: 0.742609
[rank 2, worker 5] busy ratio: 0.731369
[rank 2, worker 6] busy ratio: 0.730435
[rank 2, worker 7] busy ratio: 0.756522
[rank 2, worker 8] busy ratio: 0.769097
[rank 2, worker 9] busy ratio: 0.765217
[rank 2, worker 10] busy ratio: 0.722222
[rank 2, worker 11] busy ratio: 0.710069
[rank 2, worker 12] busy ratio: 0.704861
Loop time of 5.7846 on 224 procs for 100 steps with 2048000 atoms

[rank 2, worker 13] busy ratio: 0.718261
[rank 2, worker 14] busy ratio: 0.749129
[rank 2, worker 15] busy ratio: 0.757366
[rank 2, worker 16] busy ratio: 0.733449
[rank 2, worker 17] busy ratio: 0.732174
[rank 2, worker 18] busy ratio: 0.699653
[rank 2, worker 19] busy ratio: 0.702609
[rank 2, worker 20] busy ratio: 0.710069
[rank 2, worker 21] busy ratio: 0.740870
[rank 2, worker 22] busy ratio: 0.727903
[rank 2, worker 23] busy ratio: 0.733913
[rank 2, worker 24] busy ratio: 0.729167
[rank 2, worker 25] busy ratio: 0.697391
[rank 2, worker 26] busy ratio: 0.694974
[rank 2, worker 27] busy ratio: 0.686957
[rank 2, worker 28] busy ratio: 0.671304
[rank 2, worker 29] busy ratio: 0.675347
[rank 2, worker 30] busy ratio: 0.670711
[rank 2, worker 31] busy ratio: 0.659722
[rank 2, worker 32] busy ratio: 0.670139
[rank 2, worker 33] busy ratio: 0.673611
[rank 2, worker 34] busy ratio: 0.653913
[rank 2, worker 35] busy ratio: 0.649913
[rank 2, worker 36] busy ratio: 0.653979
Performance: 7468.100 tau/day, 17.287 timesteps/s
[rank 2, worker 37] busy ratio: 0.643478
[rank 2, worker 38] busy ratio: 0.642361
[rank 2, worker 39] busy ratio: 0.664931
[rank 2, worker 40] busy ratio: 0.650435
3835.6% CPU use with 4 MPI tasks x 56 OpenMP threads
[rank 2, worker 41] busy ratio: 0.651042
[rank 2, worker 42] busy ratio: 0.652174
[rank 2, worker 43] busy ratio: 0.645833

MPI task timing breakdown:
Section |  min time  |  avg time  |  max time  |%varavg| %total
---------------------------------------------------------------
[rank 2, worker 44] busy ratio: 0.653380
[rank 2, worker 45] busy ratio: 0.664931
[rank 2, worker 46] busy ratio: 0.651042
[rank 2, worker 47] busy ratio: 0.659170
[rank 2, worker 48] busy ratio: 0.667244
[rank 2, worker 49] busy ratio: 0.633043
[rank 2, worker 50] busy ratio: 0.656250
[rank 2, worker 51] busy ratio: 0.654514
[rank 2, worker 52] busy ratio: 0.638261
[rank 2, worker 53] busy ratio: 0.642981
[rank 2, worker 54] busy ratio: 0.662630
[rank 2, worker 55] busy ratio: 0.655113
Pair    | 1.109      | 1.1179     | 1.1332     |   0.9 | 19.33
Neigh   | 0.22584    | 0.23863    | 0.25894    |   2.5 |  4.13
Comm    | 2.604      | 2.9159     | 3.1312     |  12.2 | 50.41
Output  | 0.00015541 | 0.0052423  | 0.010698   |   5.4 |  0.09
Modify  | 0.050417   | 0.068889   | 0.085541   |   6.1 |  1.19
Other   |            | 1.438      |            |       | 24.86

Nlocal:    512000 ave 512063 max 511907 min
Histogram: 1 0 0 0 1 0 0 0 0 2
Nghost:    118534 ave 118636 max 118416 min
Histogram: 1 0 0 0 0 2 0 0 0 1
Neighs:    0 ave 0 max 0 min
Histogram: 4 0 0 0 0 0 0 0 0 0
FullNghs:  3.8457e+07 ave 3.8468e+07 max 3.84444e+07 min
Histogram: 1 0 0 0 0 1 1 0 0 1

Total # of neighbors = 153828000
Ave neighs/atom = 75.1113
Neighbor list builds = 5
Dangerous builds not checked
Total wall time: 0:00:07
