LAMMPS (7 Aug 2019)
KOKKOS mode is enabled (../kokkos.cpp:85)
  will use up to 0 GPU(s) per node
  using 56 OpenMP thread(s) per MPI task
Lattice spacing in x,y,z = 1.6796 1.6796 1.6796
Created orthogonal box = (0 0 0) to (201.552 201.552 201.552)
  1 by 2 by 2 MPI processor grid
Created 6912000 atoms
  create_atoms CPU = 3.29694 secs
Neighbor list info ...
  update every 20 steps, delay 0 steps, check no
  max neighbors/atom: 2000, page size: 100000
  master list distance cutoff = 2.8
  ghost atom cutoff = 2.8
  binsize = 1.4, bins = 144 144 144
  1 neighbor lists, perpetual/occasional/extra = 1 0 0
  (1) pair lj/cut/kk, perpetual
      attributes: full, newton off, kokkos_device
      pair build: full/bin/kk/device
      stencil: full/bin/3d
      bin: kk/device
Setting up Verlet run ...
  Unit style    : lj
  Current step  : 0
  Time step     : 0.005
Per MPI rank memory allocation (min/avg/max) = 3650 | 3650 | 3650 Mbytes
Step Temp E_pair E_mol TotEng Press 
       0         1.44   -6.7733681            0   -4.6133684   -5.0196694 
     100   0.75929363   -5.7612508            0   -4.6223105   0.19076255 
[rank 0, worker 0] busy ratio: 0.926693
[rank 0, worker 1] busy ratio: 0.748403
[rank 0, worker 2] busy ratio: 0.795219
[rank 0, worker 3] busy ratio: 0.777512
[rank 0, worker 4] busy ratio: 0.792498
[rank 3, worker 0] busy ratio: 0.953895
[rank 3, worker 1] busy ratio: 0.818037
[rank 3, worker 2] busy ratio: 0.815642
[rank 3, worker 3] busy ratio: 0.819124
[rank 3, worker 4] busy ratio: 0.751796
[rank 3, worker 5] busy ratio: 0.739617
[rank 3, worker 6] busy ratio: 0.764565
[rank 3, worker 7] busy ratio: 0.814844
[rank 3, worker 8] busy ratio: 0.819633
[rank 3, worker 9] busy ratio: 0.819633
[rank 3, worker 10] busy ratio: 0.765550
[rank 3, worker 11] busy ratio: 0.756972
[rank 3, worker 12] busy ratio: 0.746209
[rank 3, worker 13] busy ratio: 0.751994
[rank 3, worker 14] busy ratio: 0.810207
[rank 3, worker 15] busy ratio: 0.812749
[rank 3, worker 16] busy ratio: 0.815642
[rank 3, worker 17] busy ratio: 0.820431
[rank 1, worker 0] busy ratio: 0.943561
[rank 1, worker 1] busy ratio: 0.790271
[rank 1, worker 2] busy ratio: 0.797125
[rank 1, worker 3] busy ratio: 0.801594
[rank 1, worker 4] busy ratio: 0.778486
[rank 1, worker 5] busy ratio: 0.758180
[rank 1, worker 6] busy ratio: 0.774322
[rank 1, worker 7] busy ratio: 0.808612
[rank 0, worker 5] busy ratio: 0.784689
[rank 0, worker 6] busy ratio: 0.777334
[rank 0, worker 7] busy ratio: 0.795853
[rank 0, worker 8] busy ratio: 0.779107
[rank 0, worker 9] busy ratio: 0.795056
[rank 0, worker 10] busy ratio: 0.792032
[rank 3, worker 18] busy ratio: 0.774940
[rank 3, worker 19] busy ratio: 0.750598
[rank 3, worker 20] busy ratio: 0.752791
[rank 3, worker 21] busy ratio: 0.812600
[rank 3, worker 22] busy ratio: 0.810207
[rank 3, worker 23] busy ratio: 0.824561
[rank 3, worker 24] busy ratio: 0.755183
[rank 3, worker 25] busy ratio: 0.722843
[rank 3, worker 26] busy ratio: 0.758978
[rank 3, worker 27] busy ratio: 0.736045
[rank 3, worker 28] busy ratio: 0.734661
[rank 3, worker 29] busy ratio: 0.735458
[rank 3, worker 30] busy ratio: 0.742038
[rank 3, worker 31] busy ratio: 0.743815
[rank 3, worker 32] busy ratio: 0.752988
[rank 3, worker 33] busy ratio: 0.759363
[rank 3, worker 34] busy ratio: 0.748804
[rank 3, worker 35] busy ratio: 0.732057
[rank 3, worker 36] busy ratio: 0.733865
[rank 3, worker 37] busy ratio: 0.731045
[rank 3, worker 38] busy ratio: 0.758566
[rank 3, worker 39] busy ratio: 0.748603
[rank 3, worker 40] busy ratio: 0.758373
[rank 3, worker 41] busy ratio: 0.751994
[rank 3, worker 42] busy ratio: 0.734450
[rank 3, worker 43] busy ratio: 0.737261
[rank 3, worker 44] busy ratio: 0.729084
[rank 1, worker 8] busy ratio: 0.814343
[rank 1, worker 9] busy ratio: 0.794422
[rank 1, worker 10] busy ratio: 0.758373
[rank 1, worker 11] busy ratio: 0.764940
[rank 1, worker 12] busy ratio: 0.746805
[rank 1, worker 13] busy ratio: 0.765974
[rank 1, worker 14] busy ratio: 0.799203
[rank 1, worker 15] busy ratio: 0.795219
[rank 1, worker 16] busy ratio: 0.803984
[rank 1, worker 17] busy ratio: 0.794892
[rank 1, worker 18] busy ratio: 0.779283
[rank 1, worker 19] busy ratio: 0.755981
[rank 1, worker 20] busy ratio: 0.761753
[rank 1, worker 21] busy ratio: 0.791235
[rank 1, worker 22] busy ratio: 0.790271
[rank 2, worker 0] busy ratio: 0.947577
[rank 2, worker 1] busy ratio: 0.802873
[rank 2, worker 2] busy ratio: 0.822311
[rank 2, worker 3] busy ratio: 0.818616
[rank 2, worker 4] busy ratio: 0.795690
[rank 2, worker 5] busy ratio: 0.784517
[rank 2, worker 6] busy ratio: 0.780080
[rank 2, worker 7] busy ratio: 0.820574
[rank 2, worker 8] busy ratio: 0.828025
[rank 0, worker 11] busy ratio: 0.772546
[rank 0, worker 12] busy ratio: 0.759777
[rank 0, worker 13] busy ratio: 0.769354
[rank 3, worker 45] busy ratio: 0.734450
[rank 3, worker 46] busy ratio: 0.745020
[rank 3, worker 47] busy ratio: 0.738854
[rank 3, worker 48] busy ratio: 0.756778
[rank 1, worker 23] busy ratio: 0.785486
[rank 1, worker 24] busy ratio: 0.765550
[rank 0, worker 14] busy ratio: 0.746614
[rank 0, worker 15] busy ratio: 0.757576
[rank 0, worker 16] busy ratio: 0.755981
[rank 3, worker 49] busy ratio: 0.731260
[rank 3, worker 50] busy ratio: 0.728287
[rank 3, worker 51] busy ratio: 0.728070
[rank 1, worker 25] busy ratio: 0.757382
[rank 1, worker 26] busy ratio: 0.767943
[rank 0, worker 17] busy ratio: 0.764940
[rank 0, worker 18] busy ratio: 0.747007
[rank 3, worker 52] busy ratio: 0.746209
[rank 3, worker 53] busy ratio: 0.738437
[rank 3, worker 54] busy ratio: 0.735458
[rank 1, worker 27] busy ratio: 0.751796
[rank 1, worker 28] busy ratio: 0.763955
[rank 1, worker 29] busy ratio: 0.736632
[rank 0, worker 19] busy ratio: 0.785032
[rank 0, worker 20] busy ratio: 0.753785
[rank 0, worker 21] busy ratio: 0.735458
[rank 3, worker 55] busy ratio: 0.724083
[rank 1, worker 30] busy ratio: 0.748804
[rank 1, worker 31] busy ratio: 0.757576
[rank 2, worker 9] busy ratio: 0.831738
[rank 2, worker 10] busy ratio: 0.781499
[rank 2, worker 11] busy ratio: 0.764565
[rank 2, worker 12] busy ratio: 0.782921
[rank 2, worker 13] busy ratio: 0.781499
[rank 2, worker 14] busy ratio: 0.823623
[rank 2, worker 15] busy ratio: 0.819124
[rank 2, worker 16] busy ratio: 0.819777
[rank 2, worker 17] busy ratio: 0.828025
[rank 2, worker 18] busy ratio: 0.767757
[rank 2, worker 19] busy ratio: 0.783267
[rank 2, worker 20] busy ratio: 0.782816
[rank 2, worker 21] busy ratio: 0.828412
[rank 2, worker 22] busy ratio: 0.814343
[rank 2, worker 23] busy ratio: 0.815789
[rank 0, worker 22] busy ratio: 0.735458
[rank 0, worker 23] busy ratio: 0.755981
[rank 1, worker 32] busy ratio: 0.760766
[rank 1, worker 33] busy ratio: 0.761943
[rank 2, worker 24] busy ratio: 0.783892
[rank 2, worker 25] busy ratio: 0.777512
[rank 2, worker 26] busy ratio: 0.779107
[rank 0, worker 24] busy ratio: 0.736255
[rank 0, worker 25] busy ratio: 0.754386
[rank 0, worker 26] busy ratio: 0.728070
[rank 1, worker 34] busy ratio: 0.755183
[rank 1, worker 35] busy ratio: 0.751994
[rank 1, worker 36] busy ratio: 0.755378
[rank 1, worker 37] busy ratio: 0.757382
[rank 2, worker 27] busy ratio: 0.791069
[rank 2, worker 28] busy ratio: 0.737640
[rank 0, worker 27] busy ratio: 0.754988
[rank 0, worker 28] busy ratio: 0.789474
[rank 1, worker 38] busy ratio: 0.750399
[rank 1, worker 39] busy ratio: 0.754582
[rank 2, worker 29] busy ratio: 0.734026
[rank 2, worker 30] busy ratio: 0.734238
[rank 0, worker 29] busy ratio: 0.785486
[rank 0, worker 30] busy ratio: 0.797610
[rank 0, worker 31] busy ratio: 0.792032
[rank 1, worker 40] busy ratio: 0.764753
[rank 1, worker 41] busy ratio: 0.760956
[rank 2, worker 31] busy ratio: 0.758566
[rank 2, worker 32] busy ratio: 0.744817
[rank 0, worker 32] busy ratio: 0.791069
[rank 0, worker 33] busy ratio: 0.777334
[rank 1, worker 42] busy ratio: 0.747209
[rank 1, worker 43] busy ratio: 0.758758
[rank 1, worker 44] busy ratio: 0.755981
[rank 2, worker 33] busy ratio: 0.745020
[rank 2, worker 34] busy ratio: 0.749601
[rank 0, worker 34] busy ratio: 0.789474
[rank 0, worker 35] busy ratio: 0.781499
[rank 0, worker 36] busy ratio: 0.799043
[rank 1, worker 45] busy ratio: 0.751196
[rank 1, worker 46] busy ratio: 0.754190
[rank 2, worker 35] busy ratio: 0.724083
[rank 2, worker 36] busy ratio: 0.741627
[rank 2, worker 37] busy ratio: 0.758758
[rank 2, worker 38] busy ratio: 0.745817
[rank 2, worker 39] busy ratio: 0.748006
[rank 0, worker 37] busy ratio: 0.799841
[rank 0, worker 38] busy ratio: 0.775917
[rank 1, worker 47] busy ratio: 0.745020
[rank 1, worker 48] busy ratio: 0.772293
[rank 2, worker 40] busy ratio: 0.737430
[rank 2, worker 41] busy ratio: 0.755573
[rank 0, worker 39] busy ratio: 0.771930
[rank 0, worker 40] busy ratio: 0.760159
[rank 0, worker 41] busy ratio: 0.776715
[rank 1, worker 49] busy ratio: 0.759777
[rank 2, worker 42] busy ratio: 0.728435
[rank 2, worker 43] busy ratio: 0.743631
[rank 0, worker 42] busy ratio: 0.780527
[rank 0, worker 43] busy ratio: 0.778662
[rank 1, worker 50] busy ratio: 0.753392
[rank 1, worker 51] busy ratio: 0.745223
[rank 2, worker 44] busy ratio: 0.748207
[rank 2, worker 45] busy ratio: 0.744019
[rank 0, worker 44] busy ratio: 0.775738
[rank 0, worker 45] busy ratio: 0.764753
[rank 1, worker 52] busy ratio: 0.755183
[rank 1, worker 53] busy ratio: 0.756175
[rank 1, worker 54] busy ratio: 0.753981
[rank 1, worker 55] busy ratio: 0.729084
[rank 2, worker 46] busy ratio: 0.748006
[rank 2, worker 47] busy ratio: 0.743017
[rank 0, worker 46] busy ratio: 0.760159
[rank 0, worker 47] busy ratio: 0.763955
[rank 0, worker 48] busy ratio: 0.764143
[rank 2, worker 48] busy ratio: 0.747410
[rank 2, worker 49] busy ratio: 0.749801
[rank 0, worker 49] busy ratio: 0.781847
[rank 0, worker 50] busy ratio: 0.767331
[rank 2, worker 50] busy ratio: 0.739442
[rank 2, worker 51] busy ratio: 0.758950
[rank 2, worker 52] busy ratio: 0.746411
[rank 0, worker 51] busy ratio: 0.778309
[rank 0, worker 52] busy ratio: 0.782643
[rank 0, worker 53] busy ratio: 0.755378
[rank 2, worker 53] busy ratio: 0.738645
[rank 2, worker 54] busy ratio: 0.752191
[rank 0, worker 54] busy ratio: 0.758566
[rank 0, worker 55] busy ratio: 0.757166
[rank 2, worker 55] busy ratio: 0.714514
Loop time of 12.5676 on 224 procs for 100 steps with 6912000 atoms

Performance: 3437.414 tau/day, 7.957 timesteps/s
4251.0% CPU use with 4 MPI tasks x 56 OpenMP threads

MPI task timing breakdown:
Section |  min time  |  avg time  |  max time  |%varavg| %total
---------------------------------------------------------------
Pair    | 5.4079     | 5.7496     | 6.162      |  11.3 | 45.75
Neigh   | 0.7657     | 0.79713    | 0.82685    |   2.4 |  6.34
Comm    | 1.6416     | 2.9871     | 3.7502     |  46.6 | 23.77
Output  | 0.00058705 | 0.016516   | 0.031508   |  11.4 |  0.13
Modify  | 0.25274    | 0.28984    | 0.32577    |   5.1 |  2.31
Other   |            | 2.727      |            |       | 21.70

Nlocal:    1.728e+06 ave 1.72823e+06 max 1.72772e+06 min
Histogram: 1 0 0 0 0 1 1 0 0 1
Nghost:    260645 ave 260881 max 260518 min
Histogram: 1 1 1 0 0 0 0 0 0 1
Neighs:    0 ave 0 max 0 min
Histogram: 4 0 0 0 0 0 0 0 0 0
FullNghs:  1.2979e+08 ave 1.29814e+08 max 1.29771e+08 min
Histogram: 1 0 1 0 0 1 0 0 0 1

Total # of neighbors = 519161500
Ave neighs/atom = 75.1102
Neighbor list builds = 5
Dangerous builds not checked
Total wall time: 0:00:17
