LAMMPS (7 Aug 2019)
KOKKOS mode is enabled (../kokkos.cpp:85)
  will use up to 0 GPU(s) per node
  using 56 OpenMP thread(s) per MPI task
Lattice spacing in x,y,z = 1.6796 1.6796 1.6796
Created orthogonal box = (0 0 0) to (201.552 201.552 201.552)
  1 by 2 by 2 MPI processor grid
Created 6912000 atoms
  create_atoms CPU = 3.37319 secs
Neighbor list info ...
  update every 20 steps, delay 0 steps, check no
  max neighbors/atom: 2000, page size: 100000
  master list distance cutoff = 2.8
  ghost atom cutoff = 2.8
  binsize = 1.4, bins = 144 144 144
  1 neighbor lists, perpetual/occasional/extra = 1 0 0
  (1) pair lj/cut/kk, perpetual
      attributes: full, newton off, kokkos_device
      pair build: full/bin/kk/device
      stencil: full/bin/3d
      bin: kk/device
Setting up Verlet run ...
  Unit style    : lj
  Current step  : 0
  Time step     : 0.005
Per MPI rank memory allocation (min/avg/max) = 3650 | 3650 | 3650 Mbytes
Step Temp E_pair E_mol TotEng Press 
       0         1.44   -6.7733681            0   -4.6133684   -5.0196694 
     100   0.75929363   -5.7612508            0   -4.6223105   0.19076255 
[rank 1, worker 0] busy ratio: 0.950054
[rank 1, worker 1] busy ratio: 0.877440
[rank 1, worker 2] busy ratio: 0.874323
[rank 1, worker 3] busy ratio: 0.884908
[rank 1, worker 4] busy ratio: 0.850488
[rank 1, worker 5] busy ratio: 0.842733
[rank 1, worker 6] busy ratio: 0.842904
[rank 1, worker 7] busy ratio: 0.882990
[rank 1, worker 8] busy ratio: 0.875271
[rank 1, worker 9] busy ratio: 0.888286
[rank 0, worker 0] busy ratio: 0.942454
[rank 0, worker 1] busy ratio: 0.834783
[rank 0, worker 2] busy ratio: 0.850325
[rank 0, worker 3] busy ratio: 0.850163
[rank 3, worker 0] busy ratio: 0.951246
[rank 3, worker 1] busy ratio: 0.872017
[rank 3, worker 2] busy ratio: 0.864130
[rank 3, worker 3] busy ratio: 0.858072
[rank 3, worker 4] busy ratio: 0.840391
[rank 3, worker 5] busy ratio: 0.833696
[rank 3, worker 6] busy ratio: 0.830619
[rank 3, worker 7] busy ratio: 0.874187
[rank 0, worker 4] busy ratio: 0.850325
[rank 0, worker 5] busy ratio: 0.843987
[rank 0, worker 6] busy ratio: 0.851410
[rank 0, worker 7] busy ratio: 0.857918
[rank 1, worker 10] busy ratio: 0.844902
[rank 1, worker 11] busy ratio: 0.846154
[rank 1, worker 12] busy ratio: 0.849241
[rank 1, worker 13] busy ratio: 0.853738
[rank 1, worker 14] busy ratio: 0.878525
[rank 1, worker 15] busy ratio: 0.876623
[rank 1, worker 16] busy ratio: 0.873102
[rank 1, worker 17] busy ratio: 0.874323
[rank 1, worker 18] busy ratio: 0.852495
[rank 1, worker 19] busy ratio: 0.838395
[rank 1, worker 20] busy ratio: 0.847072
[rank 1, worker 21] busy ratio: 0.863636
[rank 1, worker 22] busy ratio: 0.881650
[rank 1, worker 23] busy ratio: 0.866739
[rank 1, worker 24] busy ratio: 0.847991
[rank 1, worker 25] busy ratio: 0.845238
[rank 1, worker 26] busy ratio: 0.854821
[rank 1, worker 27] busy ratio: 0.841477
[rank 1, worker 28] busy ratio: 0.838395
[rank 1, worker 29] busy ratio: 0.835141
[rank 1, worker 30] busy ratio: 0.841477
[rank 1, worker 31] busy ratio: 0.845070
[rank 1, worker 32] busy ratio: 0.839305
[rank 1, worker 33] busy ratio: 0.835141
[rank 2, worker 0] busy ratio: 0.955435
[rank 2, worker 1] busy ratio: 0.887079
[rank 2, worker 2] busy ratio: 0.879479
[rank 2, worker 3] busy ratio: 0.884908
[rank 2, worker 4] busy ratio: 0.863192
[rank 2, worker 5] busy ratio: 0.857918
[rank 2, worker 6] busy ratio: 0.855592
[rank 2, worker 7] busy ratio: 0.891658
[rank 2, worker 8] busy ratio: 0.889491
[rank 2, worker 9] busy ratio: 0.882863
[rank 3, worker 8] busy ratio: 0.869848
[rank 3, worker 9] busy ratio: 0.870933
[rank 3, worker 10] busy ratio: 0.842391
[rank 3, worker 11] busy ratio: 0.848156
[rank 3, worker 12] busy ratio: 0.840391
[rank 3, worker 13] busy ratio: 0.830435
[rank 3, worker 14] busy ratio: 0.870652
[rank 3, worker 15] busy ratio: 0.866450
[rank 3, worker 16] busy ratio: 0.865655
[rank 3, worker 17] busy ratio: 0.860870
[rank 3, worker 18] busy ratio: 0.853579
[rank 3, worker 19] busy ratio: 0.827736
[rank 3, worker 20] busy ratio: 0.829533
[rank 3, worker 21] busy ratio: 0.866739
[rank 3, worker 22] busy ratio: 0.866594
[rank 3, worker 23] busy ratio: 0.863192
[rank 3, worker 24] busy ratio: 0.826464
[rank 3, worker 25] busy ratio: 0.819957
[rank 3, worker 26] busy ratio: 0.846154
[rank 3, worker 27] busy ratio: 0.834056
[rank 3, worker 28] busy ratio: 0.828447
[rank 3, worker 29] busy ratio: 0.810870
[rank 3, worker 30] busy ratio: 0.814130
[rank 3, worker 31] busy ratio: 0.804560
[rank 3, worker 32] busy ratio: 0.821739
[rank 0, worker 8] busy ratio: 0.854664
[rank 0, worker 9] busy ratio: 0.853579
[rank 1, worker 34] busy ratio: 0.848321
[rank 1, worker 35] busy ratio: 0.838570
[rank 1, worker 36] busy ratio: 0.839305
[rank 2, worker 10] busy ratio: 0.850163
[rank 2, worker 11] busy ratio: 0.851410
[rank 2, worker 12] busy ratio: 0.866450
[rank 2, worker 13] busy ratio: 0.856833
[rank 2, worker 14] busy ratio: 0.882736
[rank 2, worker 15] busy ratio: 0.891540
[rank 2, worker 16] busy ratio: 0.886117
[rank 2, worker 17] busy ratio: 0.885993
[rank 2, worker 18] busy ratio: 0.854664
[rank 2, worker 19] busy ratio: 0.859783
[rank 2, worker 20] busy ratio: 0.856833
[rank 2, worker 21] busy ratio: 0.888286
[rank 2, worker 22] busy ratio: 0.882736
[rank 2, worker 23] busy ratio: 0.879479
[rank 2, worker 24] busy ratio: 0.852495
[rank 2, worker 25] busy ratio: 0.842904
[rank 2, worker 26] busy ratio: 0.856833
[rank 2, worker 27] busy ratio: 0.861021
[rank 2, worker 28] busy ratio: 0.819565
[rank 2, worker 29] busy ratio: 0.815818
[rank 2, worker 30] busy ratio: 0.825380
[rank 2, worker 31] busy ratio: 0.823913
[rank 2, worker 32] busy ratio: 0.828633
[rank 3, worker 33] busy ratio: 0.831705
[rank 3, worker 34] busy ratio: 0.828261
[rank 0, worker 10] busy ratio: 0.855748
[rank 0, worker 11] busy ratio: 0.847826
[rank 0, worker 12] busy ratio: 0.852334
[rank 1, worker 37] busy ratio: 0.834236
[rank 1, worker 38] busy ratio: 0.843818
[rank 2, worker 33] busy ratio: 0.828633
[rank 2, worker 34] busy ratio: 0.826087
[rank 2, worker 35] busy ratio: 0.828819
[rank 2, worker 36] busy ratio: 0.825758
[rank 2, worker 37] busy ratio: 0.828633
[rank 2, worker 38] busy ratio: 0.835870
[rank 2, worker 39] busy ratio: 0.831522
[rank 2, worker 40] busy ratio: 0.825000
[rank 2, worker 41] busy ratio: 0.822319
[rank 2, worker 42] busy ratio: 0.827549
[rank 2, worker 43] busy ratio: 0.825569
[rank 2, worker 44] busy ratio: 0.815418
[rank 2, worker 45] busy ratio: 0.817985
[rank 2, worker 46] busy ratio: 0.836048
[rank 2, worker 47] busy ratio: 0.830803
[rank 3, worker 35] busy ratio: 0.820847
[rank 3, worker 36] busy ratio: 0.826276
[rank 0, worker 13] busy ratio: 0.844734
[rank 0, worker 14] busy ratio: 0.841304
[rank 1, worker 39] busy ratio: 0.839305
[rank 1, worker 40] busy ratio: 0.839479
[rank 2, worker 48] busy ratio: 0.826276
[rank 2, worker 49] busy ratio: 0.824295
[rank 2, worker 50] busy ratio: 0.818872
[rank 2, worker 51] busy ratio: 0.818675
[rank 3, worker 37] busy ratio: 0.822126
[rank 3, worker 38] busy ratio: 0.825000
[rank 0, worker 15] busy ratio: 0.836226
[rank 0, worker 16] busy ratio: 0.852495
[rank 1, worker 41] busy ratio: 0.833696
[rank 1, worker 42] busy ratio: 0.834236
[rank 2, worker 52] busy ratio: 0.834056
[rank 2, worker 53] busy ratio: 0.834056
[rank 2, worker 54] busy ratio: 0.833876
[rank 3, worker 39] busy ratio: 0.823018
[rank 3, worker 40] busy ratio: 0.828447
[rank 0, worker 17] busy ratio: 0.852495
[rank 0, worker 18] busy ratio: 0.836048
[rank 0, worker 19] busy ratio: 0.844734
[rank 1, worker 43] busy ratio: 0.824485
[rank 1, worker 44] busy ratio: 0.832251
[rank 1, worker 45] busy ratio: 0.829718
[rank 1, worker 46] busy ratio: 0.831887
[rank 2, worker 55] busy ratio: 0.750271
[rank 3, worker 41] busy ratio: 0.828633
[rank 3, worker 42] busy ratio: 0.818872
[rank 3, worker 43] busy ratio: 0.822319
[rank 3, worker 44] busy ratio: 0.821739
[rank 3, worker 45] busy ratio: 0.829348
[rank 3, worker 46] busy ratio: 0.829533
[rank 0, worker 20] busy ratio: 0.838219
[rank 0, worker 21] busy ratio: 0.836226
[rank 1, worker 47] busy ratio: 0.834962
[rank 1, worker 48] busy ratio: 0.839305
[rank 1, worker 49] busy ratio: 0.825569
[rank 3, worker 47] busy ratio: 0.820652
[rank 3, worker 48] busy ratio: 0.836048
[rank 0, worker 22] busy ratio: 0.825190
[rank 0, worker 23] busy ratio: 0.830619
[rank 1, worker 50] busy ratio: 0.824295
[rank 1, worker 51] busy ratio: 0.824485
[rank 3, worker 49] busy ratio: 0.819761
[rank 3, worker 50] busy ratio: 0.823018
[rank 0, worker 24] busy ratio: 0.835141
[rank 0, worker 25] busy ratio: 0.837134
[rank 0, worker 26] busy ratio: 0.842562
[rank 0, worker 27] busy ratio: 0.824295
[rank 0, worker 28] busy ratio: 0.851087
[rank 0, worker 29] busy ratio: 0.852334
[rank 0, worker 30] busy ratio: 0.848156
[rank 0, worker 31] busy ratio: 0.850488
[rank 0, worker 32] busy ratio: 0.855905
[rank 0, worker 33] busy ratio: 0.846906
[rank 0, worker 34] busy ratio: 0.851410
[rank 0, worker 35] busy ratio: 0.851249
[rank 1, worker 52] busy ratio: 0.839653
[rank 1, worker 53] busy ratio: 0.838395
[rank 3, worker 51] busy ratio: 0.824295
[rank 3, worker 52] busy ratio: 0.831887
[rank 0, worker 36] busy ratio: 0.850163
[rank 0, worker 37] busy ratio: 0.863489
[rank 0, worker 38] busy ratio: 0.849241
[rank 1, worker 54] busy ratio: 0.836403
[rank 1, worker 55] busy ratio: 0.793926
[rank 3, worker 53] busy ratio: 0.828261
[rank 3, worker 54] busy ratio: 0.817787
[rank 0, worker 39] busy ratio: 0.843818
[rank 0, worker 40] busy ratio: 0.853579
[rank 3, worker 55] busy ratio: 0.799131
[rank 0, worker 41] busy ratio: 0.845238
[rank 0, worker 42] busy ratio: 0.849077
[rank 0, worker 43] busy ratio: 0.844902
[rank 0, worker 44] busy ratio: 0.842733
[rank 0, worker 45] busy ratio: 0.836226
[rank 0, worker 46] busy ratio: 0.849241
[rank 0, worker 47] busy ratio: 0.839305
[rank 0, worker 48] busy ratio: 0.842733
[rank 0, worker 49] busy ratio: 0.851249
[rank 0, worker 50] busy ratio: 0.854506
[rank 0, worker 51] busy ratio: 0.872964
[rank 0, worker 52] busy ratio: 0.839479
[rank 0, worker 53] busy ratio: 0.832790
[rank 0, worker 54] busy ratio: 0.847072
[rank 0, worker 55] busy ratio: 0.796316
Loop time of 9.23159 on 224 procs for 100 steps with 6912000 atoms

Performance: 4679.582 tau/day, 10.832 timesteps/s
4680.9% CPU use with 4 MPI tasks x 56 OpenMP threads

MPI task timing breakdown:
Section |  min time  |  avg time  |  max time  |%varavg| %total
---------------------------------------------------------------
Pair    | 4.4051     | 4.6327     | 4.9677     |   9.7 | 50.18
Neigh   | 0.77875    | 0.79062    | 0.81062    |   1.4 |  8.56
Comm    | 1.1642     | 1.5504     | 1.9866     |  23.8 | 16.79
Output  | 0.00062522 | 0.01142    | 0.027405   |   9.4 |  0.12
Modify  | 0.2189     | 0.25508    | 0.30262    |   6.2 |  2.76
Other   |            | 1.991      |            |       | 21.57

Nlocal:    1.728e+06 ave 1.72823e+06 max 1.72772e+06 min
Histogram: 1 0 0 0 0 1 1 0 0 1
Nghost:    260645 ave 260881 max 260518 min
Histogram: 1 1 1 0 0 0 0 0 0 1
Neighs:    0 ave 0 max 0 min
Histogram: 4 0 0 0 0 0 0 0 0 0
FullNghs:  1.2979e+08 ave 1.29814e+08 max 1.29771e+08 min
Histogram: 1 0 1 0 0 1 0 0 0 1

Total # of neighbors = 519161500
Ave neighs/atom = 75.1102
Neighbor list builds = 5
Dangerous builds not checked
Total wall time: 0:00:14
