LAMMPS (7 Aug 2019)
KOKKOS mode is enabled (../kokkos.cpp:85)
  will use up to 0 GPU(s) per node
  using 56 OpenMP thread(s) per MPI task
Lattice spacing in x,y,z = 1.6796 1.6796 1.6796
Created orthogonal box = (0 0 0) to (134.368 134.368 134.368)
  1 by 2 by 2 MPI processor grid
Created 2048000 atoms
  create_atoms CPU = 1.38291 secs
Neighbor list info ...
  update every 20 steps, delay 0 steps, check no
  max neighbors/atom: 2000, page size: 100000
  master list distance cutoff = 2.8
  ghost atom cutoff = 2.8
  binsize = 1.4, bins = 96 96 96
  1 neighbor lists, perpetual/occasional/extra = 1 0 0
  (1) pair lj/cut/kk, perpetual
      attributes: full, newton off, kokkos_device
      pair build: full/bin/kk/device
      stencil: full/bin/3d
      bin: kk/device
Setting up Verlet run ...
  Unit style    : lj
  Current step  : 0
  Time step     : 0.005
Per MPI rank memory allocation (min/avg/max) = 1166 | 1166 | 1166 Mbytes
Step Temp E_pair E_mol TotEng Press 
       0         1.44   -6.7733681            0   -4.6133691   -5.0196699 
     100   0.75921977   -5.7611315            0   -4.6223024   0.19208802 
[rank 0, worker 0] busy ratio: 0.931973
[rank 0, worker 1] busy ratio: 0.740103
[rank 0, worker 2] busy ratio: 0.726334
[rank 0, worker 3] busy ratio: 0.731959
[rank 0, worker 4] busy ratio: 0.722603
[rank 0, worker 5] busy ratio: 0.734483
[rank 0, worker 6] busy ratio: 0.728522
[rank 0, worker 7] busy ratio: 0.725086
[rank 0, worker 8] busy ratio: 0.732419
[rank 0, worker 9] busy ratio: 0.730241
[rank 0, worker 10] busy ratio: 0.731034
[rank 0, worker 11] busy ratio: 0.706186
[rank 0, worker 12] busy ratio: 0.730241
[rank 1, worker 0] busy ratio: 0.947189
[rank 1, worker 1] busy ratio: 0.738832
[rank 1, worker 2] busy ratio: 0.766323
[rank 1, worker 3] busy ratio: 0.760757
[rank 1, worker 4] busy ratio: 0.767123
[rank 1, worker 5] busy ratio: 0.723842
[rank 1, worker 6] busy ratio: 0.722892
[rank 1, worker 7] busy ratio: 0.761578
[rank 1, worker 8] busy ratio: 0.756432
[rank 1, worker 9] busy ratio: 0.757732
[rank 1, worker 10] busy ratio: 0.726804
[rank 1, worker 11] busy ratio: 0.704467
[rank 1, worker 12] busy ratio: 0.705479
[rank 1, worker 13] busy ratio: 0.713551
[rank 1, worker 14] busy ratio: 0.756014
[rank 0, worker 13] busy ratio: 0.725557
[rank 0, worker 14] busy ratio: 0.722127
[rank 0, worker 15] busy ratio: 0.724315
[rank 3, worker 0] busy ratio: 0.948805
[rank 3, worker 1] busy ratio: 0.743103
[rank 3, worker 2] busy ratio: 0.755594
[rank 3, worker 3] busy ratio: 0.748709
[rank 3, worker 4] busy ratio: 0.730703
[rank 3, worker 5] busy ratio: 0.715517
[rank 3, worker 6] busy ratio: 0.714777
[rank 3, worker 7] busy ratio: 0.767642
[rank 3, worker 8] busy ratio: 0.757732
[rank 3, worker 9] busy ratio: 0.752577
[rank 3, worker 10] busy ratio: 0.703959
[rank 3, worker 11] busy ratio: 0.718213
[rank 3, worker 12] busy ratio: 0.702749
[rank 3, worker 13] busy ratio: 0.707904
[rank 3, worker 14] busy ratio: 0.757732
[rank 3, worker 15] busy ratio: 0.748709
[rank 0, worker 16] busy ratio: 0.714286
[rank 0, worker 17] busy ratio: 0.702749
[rank 3, worker 16] busy ratio: 0.750000
[rank 3, worker 17] busy ratio: 0.740550
[rank 3, worker 18] busy ratio: 0.714286
[rank 3, worker 19] busy ratio: 0.703767
[rank 3, worker 20] busy ratio: 0.694158
[rank 3, worker 21] busy ratio: 0.735849
[rank 3, worker 22] busy ratio: 0.744863
[rank 3, worker 23] busy ratio: 0.728988
[rank 3, worker 24] busy ratio: 0.695876
[rank 3, worker 25] busy ratio: 0.695876
[rank 3, worker 26] busy ratio: 0.692440
[rank 3, worker 27] busy ratio: 0.701031
[rank 3, worker 28] busy ratio: 0.684483
[rank 3, worker 29] busy ratio: 0.677530
[rank 3, worker 30] busy ratio: 0.668954
[rank 3, worker 31] busy ratio: 0.695205
[rank 3, worker 32] busy ratio: 0.680412
[rank 3, worker 33] busy ratio: 0.671256
[rank 3, worker 34] busy ratio: 0.674699
[rank 3, worker 35] busy ratio: 0.662093
[rank 3, worker 36] busy ratio: 0.664948
[rank 3, worker 37] busy ratio: 0.651203
[rank 3, worker 38] busy ratio: 0.678082
[rank 3, worker 39] busy ratio: 0.673540
[rank 0, worker 18] busy ratio: 0.710616
[rank 0, worker 19] busy ratio: 0.703959
[rank 0, worker 20] busy ratio: 0.699828
[rank 1, worker 15] busy ratio: 0.753002
[rank 1, worker 16] busy ratio: 0.753425
[rank 1, worker 17] busy ratio: 0.754717
[rank 1, worker 18] busy ratio: 0.703259
[rank 1, worker 19] busy ratio: 0.710120
[rank 1, worker 20] busy ratio: 0.694683
[rank 1, worker 21] busy ratio: 0.747856
[rank 1, worker 22] busy ratio: 0.739280
[rank 1, worker 23] busy ratio: 0.721649
[rank 1, worker 24] busy ratio: 0.685567
[rank 1, worker 25] busy ratio: 0.692967
[rank 1, worker 26] busy ratio: 0.693493
[rank 1, worker 27] busy ratio: 0.699313
[rank 1, worker 28] busy ratio: 0.671256
[rank 1, worker 29] busy ratio: 0.654639
[rank 1, worker 30] busy ratio: 0.651801
[rank 1, worker 31] busy ratio: 0.667238
[rank 1, worker 32] busy ratio: 0.667238
[rank 1, worker 33] busy ratio: 0.671233
[rank 1, worker 34] busy ratio: 0.667808
[rank 1, worker 35] busy ratio: 0.636986
[rank 1, worker 36] busy ratio: 0.638699
[rank 1, worker 37] busy ratio: 0.644940
[rank 1, worker 38] busy ratio: 0.671233
[rank 1, worker 39] busy ratio: 0.664384
[rank 3, worker 40] busy ratio: 0.676370
[rank 3, worker 41] busy ratio: 0.671821
[rank 3, worker 42] busy ratio: 0.672384
[rank 3, worker 43] busy ratio: 0.674658
[rank 0, worker 21] busy ratio: 0.708904
[rank 0, worker 22] busy ratio: 0.701544
[rank 1, worker 40] busy ratio: 0.655822
[rank 1, worker 41] busy ratio: 0.658662
[rank 1, worker 42] busy ratio: 0.650685
[rank 1, worker 43] busy ratio: 0.655822
[rank 3, worker 44] busy ratio: 0.654110
[rank 3, worker 45] busy ratio: 0.662093
[rank 3, worker 46] busy ratio: 0.673540
[rank 0, worker 23] busy ratio: 0.722127
[rank 0, worker 24] busy ratio: 0.715753
[rank 0, worker 25] busy ratio: 0.701544
[rank 1, worker 44] busy ratio: 0.651801
[rank 1, worker 45] busy ratio: 0.659247
[rank 1, worker 46] busy ratio: 0.653516
[rank 3, worker 47] busy ratio: 0.682131
[rank 3, worker 48] busy ratio: 0.666667
[rank 3, worker 49] busy ratio: 0.660959
[rank 0, worker 26] busy ratio: 0.700342
[rank 0, worker 27] busy ratio: 0.694158
[rank 1, worker 47] busy ratio: 0.671821
[rank 1, worker 48] busy ratio: 0.668385
[rank 1, worker 49] busy ratio: 0.635274
[rank 3, worker 50] busy ratio: 0.665523
[rank 3, worker 51] busy ratio: 0.662093
[rank 3, worker 52] busy ratio: 0.663230
[rank 3, worker 53] busy ratio: 0.674099
[rank 3, worker 54] busy ratio: 0.675815
[rank 0, worker 28] busy ratio: 0.719931
[rank 0, worker 29] busy ratio: 0.714777
[rank 0, worker 30] busy ratio: 0.702749
[rank 1, worker 50] busy ratio: 0.687822
[rank 1, worker 51] busy ratio: 0.638699
[rank 1, worker 52] busy ratio: 0.657534
[rank 1, worker 53] busy ratio: 0.653584
[rank 1, worker 54] busy ratio: 0.669521
[rank 1, worker 55] busy ratio: 0.663808
[rank 3, worker 55] busy ratio: 0.657534
[rank 0, worker 31] busy ratio: 0.706186
[rank 0, worker 32] busy ratio: 0.712565
[rank 0, worker 33] busy ratio: 0.688468
[rank 0, worker 34] busy ratio: 0.713058
[rank 0, worker 35] busy ratio: 0.702749
[rank 0, worker 36] busy ratio: 0.710120
[rank 0, worker 37] busy ratio: 0.698630
[rank 0, worker 38] busy ratio: 0.694158
[rank 0, worker 39] busy ratio: 0.731164
[rank 0, worker 40] busy ratio: 0.706690
[rank 0, worker 41] busy ratio: 0.695876
[rank 0, worker 42] busy ratio: 0.691252
[rank 2, worker 0] busy ratio: 0.924915
[rank 2, worker 1] busy ratio: 0.749568
[rank 2, worker 2] busy ratio: 0.769363
[rank 2, worker 3] busy ratio: 0.778351
[rank 2, worker 4] busy ratio: 0.757315
[rank 2, worker 5] busy ratio: 0.705172
[rank 2, worker 6] busy ratio: 0.723368
[rank 2, worker 7] busy ratio: 0.777015
[rank 2, worker 8] busy ratio: 0.747423
[rank 2, worker 9] busy ratio: 0.756014
[rank 2, worker 10] busy ratio: 0.715266
[rank 2, worker 11] busy ratio: 0.701031
[rank 2, worker 12] busy ratio: 0.708405
[rank 2, worker 13] busy ratio: 0.704974
[rank 2, worker 14] busy ratio: 0.753873
[rank 2, worker 15] busy ratio: 0.766323
[rank 2, worker 16] busy ratio: 0.746988
[rank 2, worker 17] busy ratio: 0.740550
[rank 2, worker 18] busy ratio: 0.698113
[rank 2, worker 19] busy ratio: 0.690189
[rank 2, worker 20] busy ratio: 0.676976
[rank 2, worker 21] busy ratio: 0.750430
[rank 2, worker 22] busy ratio: 0.725557
[rank 2, worker 23] busy ratio: 0.722892
[rank 2, worker 24] busy ratio: 0.680412
[rank 2, worker 25] busy ratio: 0.677530
[rank 2, worker 26] busy ratio: 0.682676
[rank 2, worker 27] busy ratio: 0.684391
[rank 2, worker 28] busy ratio: 0.682676
[rank 2, worker 29] busy ratio: 0.666667
[rank 2, worker 30] busy ratio: 0.655232
[rank 2, worker 31] busy ratio: 0.649485
[rank 2, worker 32] busy ratio: 0.661512
[rank 2, worker 33] busy ratio: 0.666667
[rank 2, worker 34] busy ratio: 0.653516
[rank 2, worker 35] busy ratio: 0.641509
[rank 2, worker 36] busy ratio: 0.655232
[rank 2, worker 37] busy ratio: 0.643718
[rank 2, worker 38] busy ratio: 0.661512
[rank 2, worker 39] busy ratio: 0.660377
[rank 2, worker 40] busy ratio: 0.656947
[rank 2, worker 41] busy ratio: 0.657487
[rank 2, worker 42] busy ratio: 0.654639
[rank 2, worker 43] busy ratio: 0.658076
[rank 2, worker 44] busy ratio: 0.651801
[rank 2, worker 45] busy ratio: 0.674658
[rank 2, worker 46] busy ratio: 0.662671
[rank 2, worker 47] busy ratio: 0.644940
[rank 2, worker 48] busy ratio: 0.667238
[rank 2, worker 49] busy ratio: 0.635274
[rank 2, worker 50] busy ratio: 0.650086
[rank 2, worker 51] busy ratio: 0.651801
[rank 2, worker 52] busy ratio: 0.668954
[rank 2, worker 53] busy ratio: 0.650086
[rank 2, worker 54] busy ratio: 0.656947
[rank 2, worker 55] busy ratio: 0.640893
[rank 0, worker 43] busy ratio: 0.697595
[rank 0, worker 44] busy ratio: 0.686644
[rank 0, worker 45] busy ratio: 0.695876
[rank 0, worker 46] busy ratio: 0.679245
[rank 0, worker 47] busy ratio: 0.707192
[rank 0, worker 48] busy ratio: 0.687179
[rank 0, worker 49] busy ratio: 0.663808
[rank 0, worker 50] busy ratio: 0.708904
[rank 0, worker 51] busy ratio: 0.679245
[rank 0, worker 52] busy ratio: 0.703767
[rank 0, worker 53] busy ratio: 0.685026
[rank 0, worker 54] busy ratio: 0.685026
[rank 0, worker 55] busy ratio: 0.684391
Loop time of 5.85171 on 224 procs for 100 steps with 2048000 atoms

Performance: 7382.452 tau/day, 17.089 timesteps/s
3836.1% CPU use with 4 MPI tasks x 56 OpenMP threads

MPI task timing breakdown:
Section |  min time  |  avg time  |  max time  |%varavg| %total
---------------------------------------------------------------
Pair    | 1.0638     | 1.1213     | 1.1716     |   3.6 | 19.16
Neigh   | 0.22688    | 0.26407    | 0.31672    |   6.6 |  4.51
Comm    | 2.517      | 2.8678     | 3.14       |  13.5 | 49.01
Output  | 0.00016408 | 0.0073298  | 0.014145   |   5.8 |  0.13
Modify  | 0.054316   | 0.094161   | 0.1193     |   8.0 |  1.61
Other   |            | 1.497      |            |       | 25.58

Nlocal:    512000 ave 512063 max 511907 min
Histogram: 1 0 0 0 1 0 0 0 0 2
Nghost:    118534 ave 118636 max 118416 min
Histogram: 1 0 0 0 0 2 0 0 0 1
Neighs:    0 ave 0 max 0 min
Histogram: 4 0 0 0 0 0 0 0 0 0
FullNghs:  3.8457e+07 ave 3.8468e+07 max 3.84444e+07 min
Histogram: 1 0 0 0 0 1 1 0 0 1

Total # of neighbors = 153828000
Ave neighs/atom = 75.1113
Neighbor list builds = 5
Dangerous builds not checked
Total wall time: 0:00:07
