LAMMPS (7 Aug 2019)
KOKKOS mode is enabled (../kokkos.cpp:85)
  will use up to 0 GPU(s) per node
  using 56 OpenMP thread(s) per MPI task
Lattice spacing in x,y,z = 1.6796 1.6796 1.6796
Created orthogonal box = (0 0 0) to (201.552 201.552 201.552)
  1 by 2 by 2 MPI processor grid
Created 6912000 atoms
  create_atoms CPU = 3.54359 secs
Neighbor list info ...
  update every 20 steps, delay 0 steps, check no
  max neighbors/atom: 2000, page size: 100000
  master list distance cutoff = 2.8
  ghost atom cutoff = 2.8
  binsize = 1.4, bins = 144 144 144
  1 neighbor lists, perpetual/occasional/extra = 1 0 0
  (1) pair lj/cut/kk, perpetual
      attributes: full, newton off, kokkos_device
      pair build: full/bin/kk/device
      stencil: full/bin/3d
      bin: kk/device
Setting up Verlet run ...
  Unit style    : lj
  Current step  : 0
  Time step     : 0.005
Per MPI rank memory allocation (min/avg/max) = 3650 | 3650 | 3650 Mbytes
Step Temp E_pair E_mol TotEng Press 
       0         1.44   -6.7733681            0   -4.6133684   -5.0196694 
     100   0.75929363   -5.7612508            0   -4.6223105   0.19076255 
[rank 3, worker 0] busy ratio: 0.983761
[rank 3, worker 1] busy ratio: 0.867747
[rank 3, worker 2] busy ratio: 0.866894
[rank 3, worker 3] busy ratio: 0.865188
[rank 3, worker 4] busy ratio: 0.836892
[rank 3, worker 5] busy ratio: 0.804441
[rank 3, worker 6] busy ratio: 0.830205
[rank 3, worker 7] busy ratio: 0.849701
[rank 1, worker 0] busy ratio: 0.979505
[rank 1, worker 1] busy ratio: 0.893926
[rank 1, worker 2] busy ratio: 0.900939
[rank 1, worker 3] busy ratio: 0.904274
[rank 1, worker 4] busy ratio: 0.834902
[rank 1, worker 5] busy ratio: 0.820513
[rank 1, worker 6] busy ratio: 0.829060
[rank 1, worker 7] busy ratio: 0.888889
[rank 0, worker 0] busy ratio: 0.978687
[rank 0, worker 1] busy ratio: 0.879487
[rank 0, worker 2] busy ratio: 0.890785
[rank 0, worker 3] busy ratio: 0.891453
[rank 0, worker 4] busy ratio: 0.837607
[rank 3, worker 8] busy ratio: 0.866894
[rank 3, worker 9] busy ratio: 0.856533
[rank 3, worker 10] busy ratio: 0.815385
[rank 3, worker 11] busy ratio: 0.826644
[rank 3, worker 12] busy ratio: 0.789923
[rank 3, worker 13] busy ratio: 0.818104
[rank 3, worker 14] busy ratio: 0.866041
[rank 3, worker 15] busy ratio: 0.824936
[rank 3, worker 16] busy ratio: 0.867747
[rank 3, worker 17] busy ratio: 0.818104
[rank 1, worker 8] busy ratio: 0.901709
[rank 1, worker 9] busy ratio: 0.898464
[rank 1, worker 10] busy ratio: 0.813675
[rank 1, worker 11] busy ratio: 0.817250
[rank 1, worker 12] busy ratio: 0.805983
[rank 1, worker 13] busy ratio: 0.814530
[rank 1, worker 14] busy ratio: 0.890505
[rank 1, worker 15] busy ratio: 0.897523
[rank 1, worker 16] busy ratio: 0.900855
[rank 1, worker 17] busy ratio: 0.881399
[rank 1, worker 18] busy ratio: 0.837746
[rank 1, worker 19] busy ratio: 0.822222
[rank 1, worker 20] busy ratio: 0.819812
[rank 1, worker 21] busy ratio: 0.886422
[rank 3, worker 18] busy ratio: 0.830205
[rank 3, worker 19] busy ratio: 0.799317
[rank 3, worker 20] busy ratio: 0.819658
[rank 1, worker 22] busy ratio: 0.884714
[rank 1, worker 23] busy ratio: 0.878840
[rank 2, worker 0] busy ratio: 0.973459
[rank 2, worker 1] busy ratio: 0.911187
[rank 2, worker 2] busy ratio: 0.916382
[rank 2, worker 3] busy ratio: 0.921502
[rank 2, worker 4] busy ratio: 0.846022
[rank 2, worker 5] busy ratio: 0.835184
[rank 2, worker 6] busy ratio: 0.822374
[rank 2, worker 7] busy ratio: 0.913749
[rank 2, worker 8] busy ratio: 0.923274
[rank 0, worker 5] busy ratio: 0.823077
[rank 0, worker 6] busy ratio: 0.815542
[rank 0, worker 7] busy ratio: 0.895816
[rank 0, worker 8] busy ratio: 0.896670
[rank 0, worker 9] busy ratio: 0.902647
[rank 0, worker 10] busy ratio: 0.830624
[rank 0, worker 11] busy ratio: 0.806314
[rank 0, worker 12] busy ratio: 0.828205
[rank 0, worker 13] busy ratio: 0.822374
[rank 3, worker 21] busy ratio: 0.856533
[rank 3, worker 22] busy ratio: 0.850555
[rank 1, worker 24] busy ratio: 0.820513
[rank 1, worker 25] busy ratio: 0.812821
[rank 0, worker 14] busy ratio: 0.883959
[rank 0, worker 15] busy ratio: 0.894962
[rank 3, worker 23] busy ratio: 0.853117
[rank 3, worker 24] busy ratio: 0.820666
[rank 3, worker 25] busy ratio: 0.804441
[rank 1, worker 26] busy ratio: 0.821520
[rank 1, worker 27] busy ratio: 0.812287
[rank 2, worker 9] busy ratio: 0.921569
[rank 2, worker 10] busy ratio: 0.828352
[rank 2, worker 11] busy ratio: 0.801025
[rank 2, worker 12] busy ratio: 0.811272
[rank 2, worker 13] busy ratio: 0.821520
[rank 2, worker 14] busy ratio: 0.920581
[rank 2, worker 15] busy ratio: 0.915601
[rank 2, worker 16] busy ratio: 0.918873
[rank 2, worker 17] busy ratio: 0.917235
[rank 2, worker 18] busy ratio: 0.812126
[rank 2, worker 19] busy ratio: 0.820119
[rank 2, worker 20] busy ratio: 0.824082
[rank 2, worker 21] busy ratio: 0.912116
[rank 2, worker 22] busy ratio: 0.912116
[rank 0, worker 16] busy ratio: 0.889838
[rank 0, worker 17] busy ratio: 0.892400
[rank 3, worker 26] busy ratio: 0.826644
[rank 3, worker 27] busy ratio: 0.803587
[rank 1, worker 28] busy ratio: 0.775021
[rank 1, worker 29] busy ratio: 0.735672
[rank 2, worker 23] busy ratio: 0.914603
[rank 2, worker 24] busy ratio: 0.830060
[rank 0, worker 18] busy ratio: 0.804441
[rank 0, worker 19] busy ratio: 0.820666
[rank 0, worker 20] busy ratio: 0.823379
[rank 3, worker 28] busy ratio: 0.818104
[rank 3, worker 29] busy ratio: 0.763045
[rank 1, worker 30] busy ratio: 0.753636
[rank 1, worker 31] busy ratio: 0.760274
[rank 2, worker 25] busy ratio: 0.812126
[rank 2, worker 26] busy ratio: 0.820819
[rank 0, worker 21] busy ratio: 0.888984
[rank 0, worker 22] busy ratio: 0.893254
[rank 3, worker 30] busy ratio: 0.800000
[rank 3, worker 31] busy ratio: 0.812980
[rank 3, worker 32] busy ratio: 0.788215
[rank 1, worker 32] busy ratio: 0.752137
[rank 1, worker 33] busy ratio: 0.794696
[rank 2, worker 27] busy ratio: 0.816239
[rank 2, worker 28] busy ratio: 0.778443
[rank 0, worker 23] busy ratio: 0.876923
[rank 0, worker 24] busy ratio: 0.799317
[rank 3, worker 33] busy ratio: 0.821672
[rank 3, worker 34] busy ratio: 0.800855
[rank 1, worker 34] busy ratio: 0.766467
[rank 1, worker 35] busy ratio: 0.779675
[rank 1, worker 36] busy ratio: 0.782051
[rank 1, worker 37] busy ratio: 0.757265
[rank 1, worker 38] busy ratio: 0.788708
[rank 2, worker 29] busy ratio: 0.748933
[rank 2, worker 30] busy ratio: 0.750000
[rank 0, worker 25] busy ratio: 0.807003
[rank 0, worker 26] busy ratio: 0.809564
[rank 3, worker 35] busy ratio: 0.802564
[rank 3, worker 36] busy ratio: 0.823228
[rank 3, worker 37] busy ratio: 0.804441
[rank 1, worker 39] busy ratio: 0.776068
[rank 1, worker 40] busy ratio: 0.774359
[rank 2, worker 31] busy ratio: 0.771990
[rank 2, worker 32] busy ratio: 0.764304
[rank 0, worker 27] busy ratio: 0.808547
[rank 0, worker 28] busy ratio: 0.770085
[rank 3, worker 38] busy ratio: 0.818104
[rank 3, worker 39] busy ratio: 0.811272
[rank 1, worker 41] busy ratio: 0.765158
[rank 1, worker 42] busy ratio: 0.773504
[rank 2, worker 33] busy ratio: 0.780529
[rank 2, worker 34] busy ratio: 0.794193
[rank 0, worker 29] busy ratio: 0.738462
[rank 0, worker 30] busy ratio: 0.780154
[rank 0, worker 31] busy ratio: 0.776732
[rank 0, worker 32] busy ratio: 0.789744
[rank 0, worker 33] busy ratio: 0.792130
[rank 3, worker 40] busy ratio: 0.812126
[rank 3, worker 41] busy ratio: 0.818958
[rank 1, worker 43] busy ratio: 0.778443
[rank 1, worker 44] busy ratio: 0.758974
[rank 2, worker 35] busy ratio: 0.745081
[rank 2, worker 36] busy ratio: 0.776923
[rank 2, worker 37] busy ratio: 0.793339
[rank 2, worker 38] busy ratio: 0.760034
[rank 2, worker 39] busy ratio: 0.787179
[rank 0, worker 34] busy ratio: 0.795726
[rank 0, worker 35] busy ratio: 0.743590
[rank 3, worker 42] busy ratio: 0.803587
[rank 3, worker 43] busy ratio: 0.820819
[rank 3, worker 44] busy ratio: 0.807003
[rank 1, worker 45] busy ratio: 0.774744
[rank 1, worker 46] busy ratio: 0.783576
[rank 2, worker 40] busy ratio: 0.770085
[rank 2, worker 41] busy ratio: 0.771990
[rank 0, worker 36] busy ratio: 0.783761
[rank 0, worker 37] busy ratio: 0.816082
[rank 3, worker 45] busy ratio: 0.817949
[rank 3, worker 46] busy ratio: 0.826644
[rank 1, worker 47] busy ratio: 0.758768
[rank 1, worker 48] busy ratio: 0.803587
[rank 2, worker 42] busy ratio: 0.743590
[rank 2, worker 43] busy ratio: 0.763652
[rank 0, worker 38] busy ratio: 0.771795
[rank 0, worker 39] busy ratio: 0.796755
[rank 3, worker 47] busy ratio: 0.784615
[rank 3, worker 48] busy ratio: 0.830205
[rank 3, worker 49] busy ratio: 0.809564
[rank 1, worker 49] busy ratio: 0.769231
[rank 1, worker 50] busy ratio: 0.799317
[rank 2, worker 44] busy ratio: 0.785653
[rank 2, worker 45] busy ratio: 0.745299
[rank 0, worker 40] busy ratio: 0.756202
[rank 0, worker 41] busy ratio: 0.790419
[rank 3, worker 50] busy ratio: 0.815542
[rank 3, worker 51] busy ratio: 0.817250
[rank 1, worker 51] busy ratio: 0.778632
[rank 1, worker 52] busy ratio: 0.796581
[rank 2, worker 46] busy ratio: 0.749787
[rank 2, worker 47] busy ratio: 0.754056
[rank 0, worker 42] busy ratio: 0.734188
[rank 0, worker 43] busy ratio: 0.779675
[rank 3, worker 52] busy ratio: 0.831768
[rank 3, worker 53] busy ratio: 0.801879
[rank 3, worker 54] busy ratio: 0.778632
[rank 1, worker 53] busy ratio: 0.738238
[rank 1, worker 54] busy ratio: 0.740804
[rank 1, worker 55] busy ratio: 0.766667
[rank 2, worker 48] busy ratio: 0.730375
[rank 2, worker 49] busy ratio: 0.791312
[rank 0, worker 44] busy ratio: 0.805817
[rank 0, worker 45] busy ratio: 0.742735
[rank 0, worker 46] busy ratio: 0.764103
[rank 3, worker 55] busy ratio: 0.787361
[rank 2, worker 50] busy ratio: 0.718430
[rank 2, worker 51] busy ratio: 0.780529
[rank 0, worker 47] busy ratio: 0.770744
[rank 0, worker 48] busy ratio: 0.753846
[rank 2, worker 52] busy ratio: 0.768376
[rank 2, worker 53] busy ratio: 0.741026
[rank 0, worker 49] busy ratio: 0.807692
[rank 0, worker 50] busy ratio: 0.727583
[rank 0, worker 51] busy ratio: 0.804274
[rank 0, worker 52] busy ratio: 0.791453
[rank 2, worker 54] busy ratio: 0.744663
[rank 2, worker 55] busy ratio: 0.752560
[rank 0, worker 53] busy ratio: 0.743370
[rank 0, worker 54] busy ratio: 0.768836
[rank 0, worker 55] busy ratio: 0.768574
Loop time of 11.723 on 224 procs for 100 steps with 6912000 atoms

Performance: 3685.051 tau/day, 8.530 timesteps/s
4508.1% CPU use with 4 MPI tasks x 56 OpenMP threads

MPI task timing breakdown:
Section |  min time  |  avg time  |  max time  |%varavg| %total
---------------------------------------------------------------
Pair    | 7.3905     | 7.6581     | 7.9135     |   6.7 | 65.33
Neigh   | 0.77473    | 0.79759    | 0.82638    |   2.5 |  6.80
Comm    | 1.1634     | 1.6411     | 1.9418     |  23.3 | 14.00
Output  | 0.00055771 | 0.014112   | 0.028007   |  10.7 |  0.12
Modify  | 0.39725    | 0.55701    | 0.6734     |  16.0 |  4.75
Other   |            | 1.055      |            |       |  9.00

Nlocal:    1.728e+06 ave 1.72823e+06 max 1.72772e+06 min
Histogram: 1 0 0 0 0 1 1 0 0 1
Nghost:    260645 ave 260881 max 260518 min
Histogram: 1 1 1 0 0 0 0 0 0 1
Neighs:    0 ave 0 max 0 min
Histogram: 4 0 0 0 0 0 0 0 0 0
FullNghs:  1.2979e+08 ave 1.29814e+08 max 1.29771e+08 min
Histogram: 1 0 1 0 0 1 0 0 0 1

Total # of neighbors = 519161500
Ave neighs/atom = 75.1102
Neighbor list builds = 5
Dangerous builds not checked
Total wall time: 0:00:16
