LAMMPS (7 Aug 2019)
KOKKOS mode is enabled (../kokkos.cpp:85)
  will use up to 0 GPU(s) per node
  using 56 OpenMP thread(s) per MPI task
Lattice spacing in x,y,z = 1.6796 1.6796 1.6796
Created orthogonal box = (0 0 0) to (403.103 403.103 403.103)
  1 by 2 by 2 MPI processor grid
Created 55296000 atoms
  create_atoms CPU = 15.2562 secs
Neighbor list info ...
  update every 20 steps, delay 0 steps, check no
  max neighbors/atom: 2000, page size: 100000
  master list distance cutoff = 2.8
  ghost atom cutoff = 2.8
  binsize = 1.4, bins = 288 288 288
  1 neighbor lists, perpetual/occasional/extra = 1 0 0
  (1) pair lj/cut/kk, perpetual
      attributes: full, newton off, kokkos_device
      pair build: full/bin/kk/device
      stencil: full/bin/3d
      bin: kk/device
Setting up Verlet run ...
  Unit style    : lj
  Current step  : 0
  Time step     : 0.005
Per MPI rank memory allocation (min/avg/max) = 2.709e+04 | 2.709e+04 | 2.709e+04 Mbytes
Step Temp E_pair E_mol TotEng Press 
       0         1.44   -6.7733681            0   -4.6133681   -5.0196693 
     100   0.75942427   -5.7614518            0   -4.6223154   0.19008332 
[rank 0, worker 0] busy ratio: 0.969467
[rank 0, worker 1] busy ratio: 0.798210
[rank 0, worker 2] busy ratio: 0.787567
[rank 0, worker 3] busy ratio: 0.791834
[rank 0, worker 4] busy ratio: 0.794367
[rank 0, worker 5] busy ratio: 0.791803
[rank 0, worker 6] busy ratio: 0.795262
[rank 0, worker 7] busy ratio: 0.797199
[rank 0, worker 8] busy ratio: 0.797168
[rank 0, worker 9] busy ratio: 0.793920
[rank 0, worker 10] busy ratio: 0.791834
[rank 3, worker 0] busy ratio: 0.968261
[rank 3, worker 1] busy ratio: 0.801282
[rank 3, worker 2] busy ratio: 0.794845
[rank 3, worker 3] busy ratio: 0.787992
[rank 3, worker 4] busy ratio: 0.790705
[rank 3, worker 5] busy ratio: 0.783671
[rank 3, worker 6] busy ratio: 0.779648
[rank 3, worker 7] busy ratio: 0.796067
[rank 3, worker 8] busy ratio: 0.793057
[rank 1, worker 0] busy ratio: 0.941255
[rank 1, worker 1] busy ratio: 0.881406
[rank 1, worker 2] busy ratio: 0.884552
[rank 1, worker 3] busy ratio: 0.875596
[rank 1, worker 4] busy ratio: 0.805966
[rank 1, worker 5] busy ratio: 0.794635
[rank 1, worker 6] busy ratio: 0.804053
[rank 1, worker 7] busy ratio: 0.884105
[rank 1, worker 8] busy ratio: 0.876061
[rank 1, worker 9] busy ratio: 0.877718
[rank 0, worker 11] busy ratio: 0.791834
[rank 0, worker 12] busy ratio: 0.794665
[rank 0, worker 13] busy ratio: 0.793114
[rank 0, worker 14] busy ratio: 0.795529
[rank 0, worker 15] busy ratio: 0.795323
[rank 0, worker 16] busy ratio: 0.796603
[rank 0, worker 17] busy ratio: 0.794963
[rank 0, worker 18] busy ratio: 0.798272
[rank 0, worker 19] busy ratio: 0.795915
[rank 0, worker 20] busy ratio: 0.789599
[rank 0, worker 21] busy ratio: 0.799911
[rank 0, worker 22] busy ratio: 0.787779
[rank 3, worker 9] busy ratio: 0.797557
[rank 3, worker 10] busy ratio: 0.777894
[rank 3, worker 11] busy ratio: 0.780128
[rank 3, worker 12] busy ratio: 0.780426
[rank 3, worker 13] busy ratio: 0.782958
[rank 3, worker 14] busy ratio: 0.792908
[rank 3, worker 15] busy ratio: 0.792492
[rank 3, worker 16] busy ratio: 0.796067
[rank 3, worker 17] busy ratio: 0.789960
[rank 3, worker 18] busy ratio: 0.787278
[rank 3, worker 19] busy ratio: 0.786651
[rank 3, worker 20] busy ratio: 0.782097
[rank 3, worker 21] busy ratio: 0.792312
[rank 3, worker 22] busy ratio: 0.788023
[rank 1, worker 10] busy ratio: 0.805721
[rank 1, worker 11] busy ratio: 0.797646
[rank 1, worker 12] busy ratio: 0.792579
[rank 1, worker 13] busy ratio: 0.801847
[rank 1, worker 14] busy ratio: 0.878314
[rank 1, worker 15] busy ratio: 0.881275
[rank 1, worker 16] busy ratio: 0.880679
[rank 1, worker 17] busy ratio: 0.888574
[rank 1, worker 18] busy ratio: 0.791418
[rank 1, worker 19] busy ratio: 0.799613
[rank 1, worker 20] busy ratio: 0.801013
[rank 1, worker 21] busy ratio: 0.887995
[rank 1, worker 22] busy ratio: 0.879488
[rank 1, worker 23] busy ratio: 0.879208
[rank 1, worker 24] busy ratio: 0.798183
[rank 0, worker 23] busy ratio: 0.793443
[rank 0, worker 24] busy ratio: 0.800626
[rank 0, worker 25] busy ratio: 0.798212
[rank 3, worker 23] busy ratio: 0.789301
[rank 3, worker 24] busy ratio: 0.782395
[rank 3, worker 25] busy ratio: 0.782363
[rank 1, worker 25] busy ratio: 0.788948
[rank 1, worker 26] busy ratio: 0.794608
[rank 1, worker 27] busy ratio: 0.793206
[rank 0, worker 26] busy ratio: 0.793741
[rank 0, worker 27] busy ratio: 0.790164
[rank 3, worker 26] busy ratio: 0.778936
[rank 3, worker 27] busy ratio: 0.786119
[rank 1, worker 28] busy ratio: 0.683065
[rank 1, worker 29] busy ratio: 0.660310
[rank 0, worker 28] busy ratio: 0.785363
[rank 3, worker 28] busy ratio: 0.768738
[rank 3, worker 29] busy ratio: 0.770228
[rank 1, worker 30] busy ratio: 0.670341
[rank 1, worker 31] busy ratio: 0.682901
[rank 0, worker 29] busy ratio: 0.787066
[rank 0, worker 30] busy ratio: 0.788439
[rank 3, worker 30] busy ratio: 0.773804
[rank 3, worker 31] busy ratio: 0.762004
[rank 2, worker 0] busy ratio: 0.970036
[rank 2, worker 1] busy ratio: 0.813329
[rank 2, worker 2] busy ratio: 0.812398
[rank 2, worker 3] busy ratio: 0.818602
[rank 2, worker 4] busy ratio: 0.799851
[rank 2, worker 5] busy ratio: 0.787662
[rank 2, worker 6] busy ratio: 0.789599
[rank 2, worker 7] busy ratio: 0.811504
[rank 2, worker 8] busy ratio: 0.814903
[rank 1, worker 32] busy ratio: 0.673719
[rank 1, worker 33] busy ratio: 0.696753
[rank 0, worker 31] busy ratio: 0.800626
[rank 0, worker 32] busy ratio: 0.791356
[rank 3, worker 32] busy ratio: 0.765083
[rank 3, worker 33] busy ratio: 0.765827
[rank 1, worker 34] busy ratio: 0.683599
[rank 1, worker 35] busy ratio: 0.688813
[rank 0, worker 33] busy ratio: 0.795858
[rank 0, worker 34] busy ratio: 0.796335
[rank 3, worker 34] busy ratio: 0.763523
[rank 3, worker 35] busy ratio: 0.768474
[rank 2, worker 9] busy ratio: 0.816123
[rank 2, worker 10] busy ratio: 0.798540
[rank 2, worker 11] busy ratio: 0.795380
[rank 2, worker 12] busy ratio: 0.791120
[rank 2, worker 13] busy ratio: 0.797019
[rank 2, worker 14] busy ratio: 0.813021
[rank 2, worker 15] busy ratio: 0.812602
[rank 2, worker 16] busy ratio: 0.811951
[rank 2, worker 17] busy ratio: 0.805572
[rank 2, worker 18] busy ratio: 0.789897
[rank 2, worker 19] busy ratio: 0.792014
[rank 2, worker 20] busy ratio: 0.793653
[rank 2, worker 21] busy ratio: 0.813198
[rank 2, worker 22] busy ratio: 0.812221
[rank 1, worker 36] busy ratio: 0.702755
[rank 1, worker 37] busy ratio: 0.699389
[rank 1, worker 38] busy ratio: 0.703411
[rank 1, worker 39] busy ratio: 0.682164
[rank 0, worker 35] busy ratio: 0.783159
[rank 0, worker 36] busy ratio: 0.786587
[rank 0, worker 37] busy ratio: 0.791685
[rank 3, worker 36] busy ratio: 0.771271
[rank 3, worker 37] busy ratio: 0.767948
[rank 3, worker 38] busy ratio: 0.766870
[rank 3, worker 39] busy ratio: 0.764452
[rank 3, worker 40] busy ratio: 0.765048
[rank 2, worker 23] busy ratio: 0.812398
[rank 2, worker 24] busy ratio: 0.794963
[rank 2, worker 25] busy ratio: 0.792579
[rank 1, worker 40] busy ratio: 0.712647
[rank 1, worker 41] busy ratio: 0.700030
[rank 1, worker 42] busy ratio: 0.711052
[rank 0, worker 38] busy ratio: 0.789450
[rank 0, worker 39] busy ratio: 0.794188
[rank 3, worker 41] busy ratio: 0.757747
[rank 3, worker 42] busy ratio: 0.769712
[rank 2, worker 26] busy ratio: 0.801043
[rank 2, worker 27] busy ratio: 0.794516
[rank 1, worker 43] busy ratio: 0.680864
[rank 1, worker 44] busy ratio: 0.684987
[rank 0, worker 40] busy ratio: 0.794188
[rank 0, worker 41] busy ratio: 0.784895
[rank 0, worker 42] busy ratio: 0.787481
[rank 3, worker 43] busy ratio: 0.767168
[rank 3, worker 44] busy ratio: 0.757079
[rank 2, worker 28] busy ratio: 0.746460
[rank 2, worker 29] busy ratio: 0.735171
[rank 1, worker 45] busy ratio: 0.717223
[rank 1, worker 46] busy ratio: 0.713754
[rank 0, worker 43] busy ratio: 0.792487
[rank 0, worker 44] busy ratio: 0.793771
[rank 0, worker 45] busy ratio: 0.794367
[rank 3, worker 45] busy ratio: 0.768027
[rank 3, worker 46] busy ratio: 0.766125
[rank 2, worker 30] busy ratio: 0.755552
[rank 2, worker 31] busy ratio: 0.755738
[rank 1, worker 47] busy ratio: 0.693671
[rank 1, worker 48] busy ratio: 0.711455
[rank 0, worker 46] busy ratio: 0.792399
[rank 0, worker 47] busy ratio: 0.794398
[rank 3, worker 47] busy ratio: 0.761805
[rank 3, worker 48] busy ratio: 0.765495
[rank 2, worker 32] busy ratio: 0.750447
[rank 2, worker 33] busy ratio: 0.755327
[rank 1, worker 49] busy ratio: 0.695082
[rank 1, worker 50] busy ratio: 0.672429
[rank 0, worker 48] busy ratio: 0.782265
[rank 0, worker 49] busy ratio: 0.795231
[rank 3, worker 49] busy ratio: 0.766905
[rank 3, worker 50] busy ratio: 0.766538
[rank 2, worker 34] busy ratio: 0.748063
[rank 2, worker 35] busy ratio: 0.747690
[rank 2, worker 36] busy ratio: 0.749665
[rank 2, worker 37] busy ratio: 0.742959
[rank 1, worker 51] busy ratio: 0.704945
[rank 1, worker 52] busy ratio: 0.710965
[rank 0, worker 50] busy ratio: 0.792697
[rank 0, worker 51] busy ratio: 0.783820
[rank 0, worker 52] busy ratio: 0.790493
[rank 3, worker 51] busy ratio: 0.772050
[rank 3, worker 52] busy ratio: 0.767168
[rank 2, worker 38] busy ratio: 0.745083
[rank 2, worker 39] busy ratio: 0.746983
[rank 1, worker 53] busy ratio: 0.683693
[rank 1, worker 54] busy ratio: 0.675752
[rank 0, worker 53] busy ratio: 0.798093
[rank 0, worker 54] busy ratio: 0.772131
[rank 3, worker 53] busy ratio: 0.760054
[rank 3, worker 54] busy ratio: 0.758415
[rank 3, worker 55] busy ratio: 0.712263
[rank 2, worker 40] busy ratio: 0.748808
[rank 2, worker 41] busy ratio: 0.749180
[rank 1, worker 55] busy ratio: 0.637787
[rank 0, worker 55] busy ratio: 0.747615
[rank 2, worker 42] busy ratio: 0.739079
[rank 2, worker 43] busy ratio: 0.742959
[rank 2, worker 44] busy ratio: 0.756853
[rank 2, worker 45] busy ratio: 0.735579
[rank 2, worker 46] busy ratio: 0.752943
[rank 2, worker 47] busy ratio: 0.750708
[rank 2, worker 48] busy ratio: 0.749516
[rank 2, worker 49] busy ratio: 0.757264
[rank 2, worker 50] busy ratio: 0.747728
[rank 2, worker 51] busy ratio: 0.757711
[rank 2, worker 52] busy ratio: 0.762515
[rank 2, worker 53] busy ratio: 0.751267
[rank 2, worker 54] busy ratio: 0.733423
[rank 2, worker 55] busy ratio: 0.680382
Loop time of 67.1438 on 224 procs for 100 steps with 55296000 atoms

Performance: 643.395 tau/day, 1.489 timesteps/s
4307.4% CPU use with 4 MPI tasks x 56 OpenMP threads

MPI task timing breakdown:
Section |  min time  |  avg time  |  max time  |%varavg| %total
---------------------------------------------------------------
Pair    | 31.982     | 32.248     | 32.803     |   5.9 | 48.03
Neigh   | 6.6913     | 6.9488     | 7.2535     |   7.9 | 10.35
Comm    | 4.8995     | 14.487     | 19.577     | 148.9 | 21.58
Output  | 0.0036151  | 0.07514    | 0.16553    |  21.2 |  0.11
Modify  | 1.5653     | 1.832      | 2.2163     |  17.9 |  2.73
Other   |            | 11.55      |            |       | 17.21

Nlocal:    1.3824e+07 ave 1.38247e+07 max 1.38235e+07 min
Histogram: 1 1 0 0 0 0 1 0 0 1
Nghost:    1.01912e+06 ave 1.01965e+06 max 1.0184e+06 min
Histogram: 1 0 0 0 1 0 0 0 1 1
Neighs:    0 ave 0 max 0 min
Histogram: 4 0 0 0 0 0 0 0 0 0
FullNghs:  1.0383e+09 ave 1.03837e+09 max 1.03824e+09 min
Histogram: 1 0 1 0 0 1 0 0 0 1

Total # of neighbors = 4.1532e+09
Ave neighs/atom = 75.1085
Neighbor list builds = 5
Dangerous builds not checked
Total wall time: 0:01:31
