LAMMPS (7 Aug 2019)
KOKKOS mode is enabled (../kokkos.cpp:85)
  will use up to 0 GPU(s) per node
  using 56 OpenMP thread(s) per MPI task
Lattice spacing in x,y,z = 1.6796 1.6796 1.6796
Created orthogonal box = (0 0 0) to (201.552 201.552 201.552)
  1 by 2 by 2 MPI processor grid
Created 6912000 atoms
  create_atoms CPU = 3.60854 secs
Neighbor list info ...
  update every 20 steps, delay 0 steps, check no
  max neighbors/atom: 2000, page size: 100000
  master list distance cutoff = 2.8
  ghost atom cutoff = 2.8
  binsize = 1.4, bins = 144 144 144
  1 neighbor lists, perpetual/occasional/extra = 1 0 0
  (1) pair lj/cut/kk, perpetual
      attributes: full, newton off, kokkos_device
      pair build: full/bin/kk/device
      stencil: full/bin/3d
      bin: kk/device
Setting up Verlet run ...
  Unit style    : lj
  Current step  : 0
  Time step     : 0.005
Per MPI rank memory allocation (min/avg/max) = 3650 | 3650 | 3650 Mbytes
Step Temp E_pair E_mol TotEng Press 
       0         1.44   -6.7733681            0   -4.6133684   -5.0196694 
     100   0.75929363   -5.7612508            0   -4.6223105   0.19076255 
[rank 0, worker 0] busy ratio: 0.974449
[rank 0, worker 1] busy ratio: 0.904678
[rank 0, worker 2] busy ratio: 0.908208
[rank 3, worker 0] busy ratio: 0.979682
[rank 3, worker 1] busy ratio: 0.881834
[rank 3, worker 2] busy ratio: 0.884581
[rank 3, worker 3] busy ratio: 0.882819
[rank 3, worker 4] busy ratio: 0.856388
[rank 3, worker 5] busy ratio: 0.812004
[rank 3, worker 6] busy ratio: 0.828924
[rank 3, worker 7] busy ratio: 0.865198
[rank 3, worker 8] busy ratio: 0.882819
[rank 1, worker 0] busy ratio: 0.977113
[rank 1, worker 1] busy ratio: 0.894876
[rank 1, worker 2] busy ratio: 0.901147
[rank 1, worker 3] busy ratio: 0.910053
[rank 1, worker 4] busy ratio: 0.859665
[rank 1, worker 5] busy ratio: 0.848940
[rank 1, worker 6] busy ratio: 0.854369
[rank 1, worker 7] busy ratio: 0.903880
[rank 1, worker 8] busy ratio: 0.907407
[rank 1, worker 9] busy ratio: 0.907244
[rank 1, worker 10] busy ratio: 0.843034
[rank 1, worker 11] busy ratio: 0.844660
[rank 1, worker 12] busy ratio: 0.838482
[rank 1, worker 13] busy ratio: 0.840388
[rank 1, worker 14] busy ratio: 0.900265
[rank 1, worker 15] busy ratio: 0.902030
[rank 3, worker 9] busy ratio: 0.871252
[rank 3, worker 10] busy ratio: 0.829225
[rank 3, worker 11] busy ratio: 0.837885
[rank 3, worker 12] busy ratio: 0.829806
[rank 3, worker 13] busy ratio: 0.822907
[rank 3, worker 14] busy ratio: 0.888889
[rank 3, worker 15] busy ratio: 0.872359
[rank 3, worker 16] busy ratio: 0.879507
[rank 3, worker 17] busy ratio: 0.867077
[rank 3, worker 18] busy ratio: 0.841410
[rank 0, worker 3] busy ratio: 0.902998
[rank 0, worker 4] busy ratio: 0.863958
[rank 0, worker 5] busy ratio: 0.853616
[rank 0, worker 6] busy ratio: 0.842895
[rank 0, worker 7] busy ratio: 0.909251
[rank 0, worker 8] busy ratio: 0.905727
[rank 0, worker 9] busy ratio: 0.910132
[rank 0, worker 10] busy ratio: 0.846425
[rank 0, worker 11] busy ratio: 0.832891
[rank 3, worker 19] busy ratio: 0.824670
[rank 3, worker 20] busy ratio: 0.839648
[rank 0, worker 12] busy ratio: 0.846290
[rank 0, worker 13] busy ratio: 0.846425
[rank 0, worker 14] busy ratio: 0.908289
[rank 0, worker 15] busy ratio: 0.903965
[rank 3, worker 21] busy ratio: 0.885362
[rank 3, worker 22] busy ratio: 0.871366
[rank 0, worker 16] busy ratio: 0.902116
[rank 0, worker 17] busy ratio: 0.903880
[rank 0, worker 18] busy ratio: 0.828622
[rank 1, worker 16] busy ratio: 0.910856
[rank 1, worker 17] busy ratio: 0.900353
[rank 1, worker 18] busy ratio: 0.860547
[rank 1, worker 19] busy ratio: 0.835097
[rank 1, worker 20] busy ratio: 0.852734
[rank 1, worker 21] busy ratio: 0.910856
[rank 1, worker 22] busy ratio: 0.909091
[rank 1, worker 23] busy ratio: 0.903880
[rank 1, worker 24] busy ratio: 0.847443
[rank 1, worker 25] busy ratio: 0.834069
[rank 1, worker 26] busy ratio: 0.845815
[rank 1, worker 27] busy ratio: 0.828773
[rank 1, worker 28] busy ratio: 0.804060
[rank 1, worker 29] busy ratio: 0.751323
[rank 1, worker 30] busy ratio: 0.781995
[rank 1, worker 31] busy ratio: 0.774051
[rank 1, worker 32] busy ratio: 0.764342
[rank 1, worker 33] busy ratio: 0.799470
[rank 1, worker 34] busy ratio: 0.788173
[rank 1, worker 35] busy ratio: 0.802295
[rank 1, worker 36] busy ratio: 0.816976
[rank 1, worker 37] busy ratio: 0.793469
[rank 1, worker 38] busy ratio: 0.813051
[rank 1, worker 39] busy ratio: 0.790821
[rank 3, worker 23] busy ratio: 0.878521
[rank 3, worker 24] busy ratio: 0.834361
[rank 0, worker 19] busy ratio: 0.845543
[rank 0, worker 20] busy ratio: 0.835979
[rank 0, worker 21] busy ratio: 0.898500
[rank 1, worker 40] busy ratio: 0.808473
[rank 1, worker 41] busy ratio: 0.792952
[rank 1, worker 42] busy ratio: 0.799470
[rank 1, worker 43] busy ratio: 0.810071
[rank 0, worker 22] busy ratio: 0.906443
[rank 0, worker 23] busy ratio: 0.894876
[rank 0, worker 24] busy ratio: 0.830538
[rank 0, worker 25] busy ratio: 0.835834
[rank 1, worker 44] busy ratio: 0.790821
[rank 1, worker 45] busy ratio: 0.813604
[rank 1, worker 46] busy ratio: 0.808642
[rank 1, worker 47] busy ratio: 0.778269
[rank 0, worker 26] busy ratio: 0.824515
[rank 0, worker 27] busy ratio: 0.829656
[rank 0, worker 28] busy ratio: 0.800530
[rank 1, worker 48] busy ratio: 0.827160
[rank 1, worker 49] busy ratio: 0.794533
[rank 1, worker 50] busy ratio: 0.816417
[rank 0, worker 29] busy ratio: 0.765018
[rank 0, worker 30] busy ratio: 0.807760
[rank 0, worker 31] busy ratio: 0.807590
[rank 0, worker 32] busy ratio: 0.807590
[rank 1, worker 51] busy ratio: 0.793988
[rank 1, worker 52] busy ratio: 0.808473
[rank 1, worker 53] busy ratio: 0.762367
[rank 1, worker 54] busy ratio: 0.756184
[rank 1, worker 55] busy ratio: 0.787102
[rank 0, worker 33] busy ratio: 0.805996
[rank 0, worker 34] busy ratio: 0.823477
[rank 0, worker 35] busy ratio: 0.784832
[rank 0, worker 36] busy ratio: 0.808473
[rank 0, worker 37] busy ratio: 0.836717
[rank 0, worker 38] busy ratio: 0.788173
[rank 0, worker 39] busy ratio: 0.812500
[rank 0, worker 40] busy ratio: 0.771201
[rank 0, worker 41] busy ratio: 0.820988
[rank 0, worker 42] busy ratio: 0.774051
[rank 0, worker 43] busy ratio: 0.801412
[rank 0, worker 44] busy ratio: 0.812886
[rank 0, worker 45] busy ratio: 0.778269
[rank 0, worker 46] busy ratio: 0.773169
[rank 0, worker 47] busy ratio: 0.795053
[rank 0, worker 48] busy ratio: 0.766784
[rank 0, worker 49] busy ratio: 0.824515
[rank 0, worker 50] busy ratio: 0.741395
[rank 0, worker 51] busy ratio: 0.816417
[rank 0, worker 52] busy ratio: 0.798060
[rank 0, worker 53] busy ratio: 0.736516
[rank 0, worker 54] busy ratio: 0.772968
[rank 0, worker 55] busy ratio: 0.781112
[rank 2, worker 0] busy ratio: 0.980565
[rank 2, worker 1] busy ratio: 0.914537
[rank 2, worker 2] busy ratio: 0.918062
[rank 2, worker 3] busy ratio: 0.920844
[rank 2, worker 4] busy ratio: 0.878307
[rank 2, worker 5] busy ratio: 0.872134
[rank 2, worker 6] busy ratio: 0.850088
[rank 2, worker 7] busy ratio: 0.924162
[rank 2, worker 8] busy ratio: 0.919824
[rank 2, worker 9] busy ratio: 0.922467
[rank 2, worker 10] busy ratio: 0.861674
[rank 2, worker 11] busy ratio: 0.842291
[rank 2, worker 12] busy ratio: 0.836861
[rank 2, worker 13] busy ratio: 0.857269
[rank 2, worker 14] busy ratio: 0.919894
[rank 2, worker 15] busy ratio: 0.911092
[rank 2, worker 16] busy ratio: 0.904846
[rank 2, worker 17] busy ratio: 0.918206
[rank 2, worker 18] busy ratio: 0.831718
[rank 2, worker 19] busy ratio: 0.865317
[rank 2, worker 20] busy ratio: 0.846561
[rank 2, worker 21] busy ratio: 0.917181
[rank 2, worker 22] busy ratio: 0.911013
[rank 2, worker 23] busy ratio: 0.909251
[rank 2, worker 24] busy ratio: 0.840529
[rank 2, worker 25] busy ratio: 0.838624
[rank 2, worker 26] busy ratio: 0.847577
[rank 2, worker 27] busy ratio: 0.845951
[rank 2, worker 28] busy ratio: 0.805996
[rank 2, worker 29] busy ratio: 0.752650
[rank 2, worker 30] busy ratio: 0.784832
[rank 2, worker 31] busy ratio: 0.785022
[rank 2, worker 32] busy ratio: 0.806708
[rank 2, worker 33] busy ratio: 0.809692
[rank 2, worker 34] busy ratio: 0.826279
[rank 2, worker 35] busy ratio: 0.783069
[rank 2, worker 36] busy ratio: 0.813216
[rank 2, worker 37] busy ratio: 0.837004
[rank 2, worker 38] busy ratio: 0.792769
[rank 2, worker 39] busy ratio: 0.829806
[rank 2, worker 40] busy ratio: 0.787665
[rank 2, worker 41] busy ratio: 0.817782
[rank 2, worker 42] busy ratio: 0.774934
[rank 2, worker 43] busy ratio: 0.790308
[rank 2, worker 44] busy ratio: 0.828924
[rank 2, worker 45] busy ratio: 0.791373
[rank 2, worker 46] busy ratio: 0.782187
[rank 2, worker 47] busy ratio: 0.796476
[rank 2, worker 48] busy ratio: 0.762115
[rank 2, worker 49] busy ratio: 0.822907
[rank 2, worker 50] busy ratio: 0.747795
[rank 2, worker 51] busy ratio: 0.822026
[rank 2, worker 52] busy ratio: 0.815697
[rank 2, worker 53] busy ratio: 0.765639
[rank 2, worker 54] busy ratio: 0.764758
[rank 2, worker 55] busy ratio: 0.795414
Loop time of 11.3545 on 224 procs for 100 steps with 6912000 atoms

Performance: 3804.670 tau/day, 8.807 timesteps/s
4620.6% CPU use with 4 MPI tasks x 56 OpenMP threads

MPI task timing breakdown:
Section |  min time  |  avg time  |  max time  |%varavg| %total
---------------------------------------------------------------
Pair    | 7.2913     | 7.5182     | 7.6375     |   4.9 | 66.21
Neigh   | 0.76964    | 0.79184    | 0.80623    |   1.5 |  6.97
[rank 3, worker 25] busy ratio: 0.812169
[rank 3, worker 26] busy ratio: 0.832599
[rank 3, worker 27] busy ratio: 0.809524
[rank 3, worker 28] busy ratio: 0.833186
[rank 3, worker 29] busy ratio: 0.792586
[rank 3, worker 30] busy ratio: 0.813216
[rank 3, worker 31] busy ratio: 0.831421
[rank 3, worker 32] busy ratio: 0.825551
[rank 3, worker 33] busy ratio: 0.840388
[rank 3, worker 34] busy ratio: 0.823789
[rank 3, worker 35] busy ratio: 0.832451
[rank 3, worker 36] busy ratio: 0.840388
[rank 3, worker 37] busy ratio: 0.842152
[rank 3, worker 38] busy ratio: 0.847308
[rank 3, worker 39] busy ratio: 0.831570
[rank 3, worker 40] busy ratio: 0.835387
[rank 3, worker 41] busy ratio: 0.831570
[rank 3, worker 42] busy ratio: 0.827313
[rank 3, worker 43] busy ratio: 0.836861
[rank 3, worker 44] busy ratio: 0.820988
[rank 3, worker 45] busy ratio: 0.835097
[rank 3, worker 46] busy ratio: 0.840529
[rank 3, worker 47] busy ratio: 0.820106
[rank 3, worker 48] busy ratio: 0.851982
[rank 3, worker 49] busy ratio: 0.834507
[rank 3, worker 50] busy ratio: 0.843915
[rank 3, worker 51] busy ratio: 0.834215
[rank 3, worker 52] busy ratio: 0.850220
[rank 3, worker 53] busy ratio: 0.829225
[rank 3, worker 54] busy ratio: 0.809524
[rank 3, worker 55] busy ratio: 0.807590
Comm    | 1.2377     | 1.4097     | 1.7057     |  16.1 | 12.42
Output  | 0.00064446 | 0.019942   | 0.036741   |  10.1 |  0.18
Modify  | 0.40409    | 0.551      | 0.67091    |  13.7 |  4.85
Other   |            | 1.064      |            |       |  9.37

Nlocal:    1.728e+06 ave 1.72823e+06 max 1.72772e+06 min
Histogram: 1 0 0 0 0 1 1 0 0 1
Nghost:    260645 ave 260881 max 260518 min
Histogram: 1 1 1 0 0 0 0 0 0 1
Neighs:    0 ave 0 max 0 min
Histogram: 4 0 0 0 0 0 0 0 0 0
FullNghs:  1.2979e+08 ave 1.29814e+08 max 1.29771e+08 min
Histogram: 1 0 1 0 0 1 0 0 0 1

Total # of neighbors = 519161500
Ave neighs/atom = 75.1102
Neighbor list builds = 5
Dangerous builds not checked
Total wall time: 0:00:16
