LAMMPS (7 Aug 2019)
KOKKOS mode is enabled (../kokkos.cpp:85)
  will use up to 0 GPU(s) per node
  using 56 OpenMP thread(s) per MPI task
Lattice spacing in x,y,z = 1.6796 1.6796 1.6796
Created orthogonal box = (0 0 0) to (134.368 134.368 134.368)
  1 by 2 by 2 MPI processor grid
Created 2048000 atoms
  create_atoms CPU = 1.54245 secs
Neighbor list info ...
  update every 20 steps, delay 0 steps, check no
  max neighbors/atom: 2000, page size: 100000
  master list distance cutoff = 2.8
  ghost atom cutoff = 2.8
  binsize = 1.4, bins = 96 96 96
  1 neighbor lists, perpetual/occasional/extra = 1 0 0
  (1) pair lj/cut/kk, perpetual
      attributes: full, newton off, kokkos_device
      pair build: full/bin/kk/device
      stencil: full/bin/3d
      bin: kk/device
Setting up Verlet run ...
  Unit style    : lj
  Current step  : 0
  Time step     : 0.005
Per MPI rank memory allocation (min/avg/max) = 1166 | 1166 | 1166 Mbytes
Step Temp E_pair E_mol TotEng Press 
       0         1.44   -6.7733681            0   -4.6133691   -5.0196699 
     100   0.75921977   -5.7611315            0   -4.6223024   0.19208802 
[rank 3, worker 0] busy ratio: 0.961965
[rank 3, worker 1] busy ratio: 0.803514
[rank 3, worker 2] busy ratio: 0.813694
[rank 3, worker 3] busy ratio: 0.809904
[rank 3, worker 4] busy ratio: 0.808612
[rank 3, worker 5] busy ratio: 0.777424
[rank 3, worker 6] busy ratio: 0.777070
[rank 3, worker 7] busy ratio: 0.807018
[rank 3, worker 8] busy ratio: 0.808307
[rank 1, worker 0] busy ratio: 0.963376
[rank 1, worker 1] busy ratio: 0.832803
[rank 1, worker 2] busy ratio: 0.839172
[rank 1, worker 3] busy ratio: 0.833068
[rank 1, worker 4] busy ratio: 0.822967
[rank 1, worker 5] busy ratio: 0.799363
[rank 1, worker 6] busy ratio: 0.803828
[rank 1, worker 7] busy ratio: 0.839428
[rank 1, worker 8] busy ratio: 0.819777
[rank 0, worker 0] busy ratio: 0.947284
[rank 0, worker 1] busy ratio: 0.833068
[rank 0, worker 2] busy ratio: 0.820064
[rank 0, worker 3] busy ratio: 0.831479
[rank 0, worker 4] busy ratio: 0.793323
[rank 0, worker 5] busy ratio: 0.744817
[rank 3, worker 9] busy ratio: 0.804140
[rank 3, worker 10] busy ratio: 0.784689
[rank 3, worker 11] busy ratio: 0.776715
[rank 3, worker 12] busy ratio: 0.778309
[rank 3, worker 13] busy ratio: 0.773525
[rank 3, worker 14] busy ratio: 0.798722
[rank 3, worker 15] busy ratio: 0.800319
[rank 3, worker 16] busy ratio: 0.803828
[rank 3, worker 17] busy ratio: 0.792994
[rank 1, worker 9] busy ratio: 0.834658
[rank 1, worker 10] busy ratio: 0.796502
[rank 1, worker 11] busy ratio: 0.807325
[rank 1, worker 12] busy ratio: 0.791733
[rank 1, worker 13] busy ratio: 0.801587
[rank 1, worker 14] busy ratio: 0.831746
[rank 1, worker 15] busy ratio: 0.828025
[rank 1, worker 16] busy ratio: 0.812401
[rank 1, worker 17] busy ratio: 0.828571
[rank 1, worker 18] busy ratio: 0.792994
[rank 1, worker 19] busy ratio: 0.789809
[rank 1, worker 20] busy ratio: 0.790143
[rank 1, worker 21] busy ratio: 0.821940
[rank 0, worker 6] busy ratio: 0.750794
[rank 0, worker 7] busy ratio: 0.833068
[rank 0, worker 8] busy ratio: 0.829618
[rank 0, worker 9] busy ratio: 0.828299
[rank 0, worker 10] busy ratio: 0.755556
[rank 0, worker 11] busy ratio: 0.753968
[rank 0, worker 12] busy ratio: 0.750000
[rank 0, worker 13] busy ratio: 0.748808
[rank 0, worker 14] busy ratio: 0.834395
[rank 0, worker 15] busy ratio: 0.820350
[rank 3, worker 18] busy ratio: 0.776000
[rank 3, worker 19] busy ratio: 0.773163
[rank 3, worker 20] busy ratio: 0.769968
[rank 2, worker 0] busy ratio: 0.958926
[rank 2, worker 1] busy ratio: 0.861244
[rank 2, worker 2] busy ratio: 0.863057
[rank 2, worker 3] busy ratio: 0.855326
[rank 2, worker 4] busy ratio: 0.851911
[rank 2, worker 5] busy ratio: 0.817891
[rank 2, worker 6] busy ratio: 0.808917
[rank 2, worker 7] busy ratio: 0.865079
[rank 2, worker 8] busy ratio: 0.874404
[rank 2, worker 9] busy ratio: 0.868254
[rank 1, worker 22] busy ratio: 0.821940
[rank 1, worker 23] busy ratio: 0.822222
[rank 1, worker 24] busy ratio: 0.780604
[rank 0, worker 16] busy ratio: 0.818471
[rank 0, worker 17] busy ratio: 0.812401
[rank 3, worker 21] busy ratio: 0.781499
[rank 3, worker 22] busy ratio: 0.792332
[rank 3, worker 23] busy ratio: 0.783439
[rank 1, worker 25] busy ratio: 0.782194
[rank 1, worker 26] busy ratio: 0.783784
[rank 0, worker 18] busy ratio: 0.737679
[rank 0, worker 19] busy ratio: 0.734499
[rank 3, worker 24] busy ratio: 0.775120
[rank 3, worker 25] busy ratio: 0.759554
[rank 1, worker 27] busy ratio: 0.782194
[rank 1, worker 28] busy ratio: 0.796502
[rank 0, worker 20] busy ratio: 0.736089
[rank 0, worker 21] busy ratio: 0.802862
[rank 3, worker 26] busy ratio: 0.766773
[rank 3, worker 27] busy ratio: 0.762739
[rank 3, worker 28] busy ratio: 0.765550
[rank 2, worker 10] busy ratio: 0.805423
[rank 2, worker 11] busy ratio: 0.819048
[rank 2, worker 12] busy ratio: 0.804762
[rank 2, worker 13] busy ratio: 0.810811
[rank 2, worker 14] busy ratio: 0.872408
[rank 2, worker 15] busy ratio: 0.859873
[rank 2, worker 16] busy ratio: 0.856688
[rank 2, worker 17] busy ratio: 0.858280
[rank 2, worker 18] busy ratio: 0.802862
[rank 2, worker 19] busy ratio: 0.796178
[rank 2, worker 20] busy ratio: 0.794586
[rank 2, worker 21] busy ratio: 0.847377
[rank 2, worker 22] busy ratio: 0.837580
[rank 1, worker 29] busy ratio: 0.779014
[rank 1, worker 30] busy ratio: 0.783094
[rank 0, worker 22] busy ratio: 0.811111
[rank 0, worker 23] busy ratio: 0.804762
[rank 3, worker 29] busy ratio: 0.746815
[rank 3, worker 30] busy ratio: 0.746411
[rank 2, worker 23] busy ratio: 0.845787
[rank 2, worker 24] busy ratio: 0.798092
[rank 2, worker 25] busy ratio: 0.794586
[rank 1, worker 31] busy ratio: 0.781499
[rank 1, worker 32] busy ratio: 0.778662
[rank 0, worker 24] busy ratio: 0.735341
[rank 0, worker 25] busy ratio: 0.737679
[rank 3, worker 31] busy ratio: 0.740446
[rank 3, worker 32] busy ratio: 0.744817
[rank 3, worker 33] busy ratio: 0.741627
[rank 2, worker 26] busy ratio: 0.799682
[rank 2, worker 27] busy ratio: 0.796502
[rank 1, worker 33] busy ratio: 0.780255
[rank 1, worker 34] busy ratio: 0.783094
[rank 1, worker 35] busy ratio: 0.777778
[rank 1, worker 36] busy ratio: 0.779014
[rank 1, worker 37] busy ratio: 0.773885
[rank 0, worker 26] busy ratio: 0.731746
[rank 0, worker 27] busy ratio: 0.736508
[rank 3, worker 34] busy ratio: 0.743222
[rank 3, worker 35] busy ratio: 0.738437
[rank 2, worker 28] busy ratio: 0.803828
[rank 2, worker 29] busy ratio: 0.786963
[rank 1, worker 38] busy ratio: 0.777424
[rank 1, worker 39] busy ratio: 0.777424
[rank 0, worker 28] busy ratio: 0.748006
[rank 0, worker 29] busy ratio: 0.759554
[rank 0, worker 30] busy ratio: 0.750397
[rank 0, worker 31] busy ratio: 0.750397
[rank 0, worker 32] busy ratio: 0.740859
[rank 3, worker 36] busy ratio: 0.737679
[rank 3, worker 37] busy ratio: 0.738095
[rank 2, worker 30] busy ratio: 0.777955
[rank 2, worker 31] busy ratio: 0.783439
[rank 1, worker 40] busy ratio: 0.786624
[rank 1, worker 41] busy ratio: 0.767886
[rank 0, worker 33] busy ratio: 0.733333
[rank 0, worker 34] busy ratio: 0.734499
[rank 3, worker 38] busy ratio: 0.740032
[rank 3, worker 39] busy ratio: 0.738854
[rank 3, worker 40] busy ratio: 0.732484
[rank 2, worker 32] busy ratio: 0.786624
[rank 2, worker 33] busy ratio: 0.783094
[rank 1, worker 42] busy ratio: 0.764706
[rank 1, worker 43] busy ratio: 0.770701
[rank 0, worker 35] busy ratio: 0.740446
[rank 0, worker 36] busy ratio: 0.732484
[rank 3, worker 41] busy ratio: 0.732484
[rank 3, worker 42] busy ratio: 0.738437
[rank 2, worker 34] busy ratio: 0.778662
[rank 2, worker 35] busy ratio: 0.778662
[rank 1, worker 44] busy ratio: 0.779014
[rank 1, worker 45] busy ratio: 0.767516
[rank 0, worker 37] busy ratio: 0.726550
[rank 0, worker 38] busy ratio: 0.737679
[rank 3, worker 43] busy ratio: 0.728140
[rank 3, worker 44] busy ratio: 0.729299
[rank 3, worker 45] busy ratio: 0.738437
[rank 2, worker 36] busy ratio: 0.773885
[rank 2, worker 37] busy ratio: 0.777070
[rank 2, worker 38] busy ratio: 0.770701
[rank 2, worker 39] busy ratio: 0.772655
[rank 2, worker 40] busy ratio: 0.769108
[rank 1, worker 46] busy ratio: 0.785032
[rank 1, worker 47] busy ratio: 0.766667
[rank 0, worker 39] busy ratio: 0.732484
[rank 0, worker 40] busy ratio: 0.731320
[rank 3, worker 46] busy ratio: 0.740446
[rank 3, worker 47] busy ratio: 0.732909
[rank 2, worker 41] busy ratio: 0.767516
[rank 2, worker 42] busy ratio: 0.777070
[rank 2, worker 43] busy ratio: 0.766667
[rank 1, worker 48] busy ratio: 0.769475
[rank 1, worker 49] busy ratio: 0.765924
[rank 0, worker 41] busy ratio: 0.729299
[rank 0, worker 42] busy ratio: 0.739269
[rank 0, worker 43] busy ratio: 0.731746
[rank 3, worker 48] busy ratio: 0.728140
[rank 3, worker 49] busy ratio: 0.727707
[rank 2, worker 44] busy ratio: 0.780255
[rank 2, worker 45] busy ratio: 0.765079
[rank 1, worker 50] busy ratio: 0.760317
[rank 1, worker 51] busy ratio: 0.771429
[rank 0, worker 44] busy ratio: 0.728571
[rank 0, worker 45] busy ratio: 0.745223
[rank 3, worker 50] busy ratio: 0.724522
[rank 3, worker 51] busy ratio: 0.727707
[rank 3, worker 52] busy ratio: 0.735669
[rank 2, worker 46] busy ratio: 0.769841
[rank 2, worker 47] busy ratio: 0.769108
[rank 1, worker 52] busy ratio: 0.770701
[rank 1, worker 53] busy ratio: 0.768254
[rank 1, worker 54] busy ratio: 0.761526
[rank 1, worker 55] busy ratio: 0.767886
[rank 0, worker 46] busy ratio: 0.728571
[rank 0, worker 47] busy ratio: 0.734076
[rank 3, worker 53] busy ratio: 0.731320
[rank 3, worker 54] busy ratio: 0.728868
[rank 2, worker 48] busy ratio: 0.777070
[rank 2, worker 49] busy ratio: 0.756369
[rank 0, worker 48] busy ratio: 0.723101
[rank 0, worker 49] busy ratio: 0.720191
[rank 3, worker 55] busy ratio: 0.732484
[rank 2, worker 50] busy ratio: 0.756757
[rank 2, worker 51] busy ratio: 0.766296
[rank 0, worker 50] busy ratio: 0.723370
[rank 0, worker 51] busy ratio: 0.725832
[rank 0, worker 52] busy ratio: 0.720635
[rank 0, worker 53] busy ratio: 0.717460
[rank 0, worker 54] busy ratio: 0.720191
[rank 2, worker 52] busy ratio: 0.761146
[rank 2, worker 53] busy ratio: 0.765924
[rank 0, worker 55] busy ratio: 0.723810
[rank 2, worker 54] busy ratio: 0.764706
[rank 2, worker 55] busy ratio: 0.767886
Loop time of 6.30465 on 224 procs for 100 steps with 2048000 atoms

Performance: 6852.087 tau/day, 15.861 timesteps/s
4291.8% CPU use with 4 MPI tasks x 56 OpenMP threads

MPI task timing breakdown:
Section |  min time  |  avg time  |  max time  |%varavg| %total
---------------------------------------------------------------
Pair    | 1.4183     | 1.4937     | 1.5906     |   5.3 | 23.69
Neigh   | 0.23042    | 0.23632    | 0.24787    |   1.4 |  3.75
Comm    | 2.3634     | 2.6713     | 2.9263     |  13.0 | 42.37
Output  | 0.00026146 | 0.0084647  | 0.014527   |   6.2 |  0.13
Modify  | 0.70642    | 0.95931    | 1.1871     |  19.5 | 15.22
Other   |            | 0.9356     |            |       | 14.84

Nlocal:    512000 ave 512063 max 511907 min
Histogram: 1 0 0 0 1 0 0 0 0 2
Nghost:    118534 ave 118636 max 118416 min
Histogram: 1 0 0 0 0 2 0 0 0 1
Neighs:    0 ave 0 max 0 min
Histogram: 4 0 0 0 0 0 0 0 0 0
FullNghs:  3.8457e+07 ave 3.8468e+07 max 3.84444e+07 min
Histogram: 1 0 0 0 0 1 1 0 0 1

Total # of neighbors = 153828000
Ave neighs/atom = 75.1113
Neighbor list builds = 5
Dangerous builds not checked
Total wall time: 0:00:08
