LAMMPS (7 Aug 2019)
KOKKOS mode is enabled (../kokkos.cpp:85)
  will use up to 0 GPU(s) per node
  using 56 OpenMP thread(s) per MPI task
Lattice spacing in x,y,z = 1.6796 1.6796 1.6796
Created orthogonal box = (0 0 0) to (134.368 134.368 134.368)
  1 by 2 by 2 MPI processor grid
Created 2048000 atoms
  create_atoms CPU = 1.44321 secs
Neighbor list info ...
  update every 20 steps, delay 0 steps, check no
  max neighbors/atom: 2000, page size: 100000
  master list distance cutoff = 2.8
  ghost atom cutoff = 2.8
  binsize = 1.4, bins = 96 96 96
  1 neighbor lists, perpetual/occasional/extra = 1 0 0
  (1) pair lj/cut/kk, perpetual
      attributes: full, newton off, kokkos_device
      pair build: full/bin/kk/device
      stencil: full/bin/3d
      bin: kk/device
Setting up Verlet run ...
  Unit style    : lj
  Current step  : 0
  Time step     : 0.005
Per MPI rank memory allocation (min/avg/max) = 1166 | 1166 | 1166 Mbytes
Step Temp E_pair E_mol TotEng Press 
       0         1.44   -6.7733681            0   -4.6133691   -5.0196699 
     100   0.75921977   -5.7611315            0   -4.6223024   0.19208802 
[rank 3, worker 0] busy ratio: 0.943973
[rank 3, worker 1] busy ratio: 0.730703
[rank 3, worker 2] busy ratio: 0.734134
[rank 3, worker 3] busy ratio: 0.758974
[rank 3, worker 4] busy ratio: 0.738462
[rank 3, worker 5] busy ratio: 0.732082
[rank 3, worker 6] busy ratio: 0.712095
[rank 3, worker 7] busy ratio: 0.770940
[rank 3, worker 8] busy ratio: 0.761986
[rank 3, worker 9] busy ratio: 0.744863
[rank 3, worker 10] busy ratio: 0.728205
[rank 3, worker 11] busy ratio: 0.726027
[rank 3, worker 12] busy ratio: 0.724786
[rank 3, worker 13] busy ratio: 0.709898
[rank 3, worker 14] busy ratio: 0.734589
[rank 3, worker 15] busy ratio: 0.731624
[rank 3, worker 16] busy ratio: 0.726496
[rank 3, worker 17] busy ratio: 0.714530
[rank 3, worker 18] busy ratio: 0.713311
[rank 3, worker 19] busy ratio: 0.701544
[rank 3, worker 20] busy ratio: 0.708191
[rank 3, worker 21] busy ratio: 0.704274
[rank 3, worker 22] busy ratio: 0.705983
[rank 3, worker 23] busy ratio: 0.698630
[rank 3, worker 24] busy ratio: 0.704274
[rank 3, worker 25] busy ratio: 0.700855
[rank 3, worker 26] busy ratio: 0.703578
[rank 3, worker 27] busy ratio: 0.692833
[rank 3, worker 28] busy ratio: 0.690598
[rank 3, worker 29] busy ratio: 0.647863
[rank 3, worker 30] busy ratio: 0.655232
[rank 3, worker 31] busy ratio: 0.681431
[rank 3, worker 32] busy ratio: 0.651282
[rank 3, worker 33] busy ratio: 0.659284
[rank 3, worker 34] busy ratio: 0.656410
[rank 3, worker 35] busy ratio: 0.646259
[rank 3, worker 36] busy ratio: 0.658120
[rank 3, worker 37] busy ratio: 0.642735
[rank 3, worker 38] busy ratio: 0.643952
[rank 3, worker 39] busy ratio: 0.643952
[rank 3, worker 40] busy ratio: 0.645051
[rank 3, worker 41] busy ratio: 0.645656
[rank 3, worker 42] busy ratio: 0.657534
[rank 3, worker 43] busy ratio: 0.649063
[rank 3, worker 44] busy ratio: 0.646758
[rank 3, worker 45] busy ratio: 0.646259
[rank 3, worker 46] busy ratio: 0.641638
[rank 3, worker 47] busy ratio: 0.652470
[rank 3, worker 48] busy ratio: 0.641026
[rank 3, worker 49] busy ratio: 0.634812
[rank 1, worker 0] busy ratio: 0.928693
[rank 1, worker 1] busy ratio: 0.727273
[rank 1, worker 2] busy ratio: 0.773973
[rank 1, worker 3] busy ratio: 0.758092
[rank 1, worker 4] busy ratio: 0.717949
[rank 1, worker 5] busy ratio: 0.721368
[rank 1, worker 6] busy ratio: 0.697436
[rank 1, worker 7] busy ratio: 0.776451
[rank 1, worker 8] busy ratio: 0.753846
[rank 1, worker 9] busy ratio: 0.759386
[rank 1, worker 10] busy ratio: 0.716724
[rank 1, worker 11] busy ratio: 0.699145
[rank 1, worker 12] busy ratio: 0.711111
[rank 1, worker 13] busy ratio: 0.711604
[rank 1, worker 14] busy ratio: 0.750853
[rank 1, worker 15] busy ratio: 0.761986
[rank 1, worker 16] busy ratio: 0.729915
[rank 1, worker 17] busy ratio: 0.740171
[rank 1, worker 18] busy ratio: 0.699659
[rank 1, worker 19] busy ratio: 0.696246
[rank 1, worker 20] busy ratio: 0.701874
[rank 1, worker 21] busy ratio: 0.721368
[rank 1, worker 22] busy ratio: 0.723077
[rank 1, worker 23] busy ratio: 0.717949
[rank 1, worker 24] busy ratio: 0.700855
[rank 1, worker 25] busy ratio: 0.691126
[rank 1, worker 26] busy ratio: 0.697436
[rank 1, worker 27] busy ratio: 0.703578
[rank 1, worker 28] busy ratio: 0.686644
[rank 1, worker 29] busy ratio: 0.667235
[rank 1, worker 30] busy ratio: 0.645051
[rank 1, worker 31] busy ratio: 0.653584
[rank 1, worker 32] busy ratio: 0.663248
[rank 1, worker 33] busy ratio: 0.651877
[rank 1, worker 34] busy ratio: 0.660988
[rank 1, worker 35] busy ratio: 0.654174
[rank 1, worker 36] busy ratio: 0.654701
[rank 1, worker 37] busy ratio: 0.645051
[rank 1, worker 38] busy ratio: 0.652470
[rank 1, worker 39] busy ratio: 0.655290
[rank 1, worker 40] busy ratio: 0.654174
[rank 1, worker 41] busy ratio: 0.642857
[rank 1, worker 42] busy ratio: 0.645656
[rank 1, worker 43] busy ratio: 0.653584
[rank 1, worker 44] busy ratio: 0.642249
[rank 1, worker 45] busy ratio: 0.632027
[rank 0, worker 0] busy ratio: 0.933673
[rank 0, worker 1] busy ratio: 0.689003
[rank 0, worker 2] busy ratio: 0.719658
[rank 0, worker 3] busy ratio: 0.722603
[rank 0, worker 4] busy ratio: 0.720890
[rank 0, worker 5] busy ratio: 0.726962
[rank 3, worker 50] busy ratio: 0.637138
[rank 3, worker 51] busy ratio: 0.637138
[rank 3, worker 52] busy ratio: 0.650171
[rank 3, worker 53] busy ratio: 0.654174
[rank 3, worker 54] busy ratio: 0.654174
[rank 3, worker 55] busy ratio: 0.632027
[rank 1, worker 46] busy ratio: 0.634812
[rank 1, worker 47] busy ratio: 0.646154
[rank 1, worker 48] busy ratio: 0.660988
[rank 1, worker 49] busy ratio: 0.645051
[rank 1, worker 50] busy ratio: 0.684838
[rank 1, worker 51] busy ratio: 0.637138
[rank 1, worker 52] busy ratio: 0.631399
[rank 1, worker 53] busy ratio: 0.643345
[rank 1, worker 54] busy ratio: 0.642249
[rank 1, worker 55] busy ratio: 0.628620
[rank 2, worker 0] busy ratio: 0.943973
[rank 2, worker 1] busy ratio: 0.735849
[rank 2, worker 2] busy ratio: 0.742321
[rank 2, worker 3] busy ratio: 0.762799
[rank 2, worker 4] busy ratio: 0.695726
[rank 2, worker 5] busy ratio: 0.687713
[rank 2, worker 6] busy ratio: 0.692833
[rank 2, worker 7] busy ratio: 0.757265
[rank 2, worker 8] busy ratio: 0.748718
[rank 2, worker 9] busy ratio: 0.755137
[rank 2, worker 10] busy ratio: 0.688889
[rank 2, worker 11] busy ratio: 0.692833
[rank 2, worker 12] busy ratio: 0.696763
[rank 2, worker 13] busy ratio: 0.692308
[rank 2, worker 14] busy ratio: 0.738014
[rank 2, worker 15] busy ratio: 0.738908
[rank 2, worker 16] busy ratio: 0.725256
[rank 2, worker 17] busy ratio: 0.730375
[rank 2, worker 18] busy ratio: 0.683761
[rank 2, worker 19] busy ratio: 0.684838
[rank 2, worker 20] busy ratio: 0.674617
[rank 2, worker 21] busy ratio: 0.726496
[rank 2, worker 22] busy ratio: 0.722317
[rank 2, worker 23] busy ratio: 0.723549
[rank 2, worker 24] busy ratio: 0.693356
[rank 2, worker 25] busy ratio: 0.671210
[rank 2, worker 26] busy ratio: 0.675214
[rank 2, worker 27] busy ratio: 0.667235
[rank 2, worker 28] busy ratio: 0.676370
[rank 2, worker 29] busy ratio: 0.648464
[rank 2, worker 30] busy ratio: 0.638225
[rank 2, worker 31] busy ratio: 0.651282
[rank 2, worker 32] busy ratio: 0.643345
[rank 2, worker 33] busy ratio: 0.663823
[rank 2, worker 34] busy ratio: 0.660959
[rank 2, worker 35] busy ratio: 0.635897
[rank 2, worker 36] busy ratio: 0.656997
[rank 2, worker 37] busy ratio: 0.636519
[rank 2, worker 38] busy ratio: 0.649063
[rank 2, worker 39] busy ratio: 0.641638
[rank 2, worker 40] busy ratio: 0.649063
[rank 2, worker 41] busy ratio: 0.637607
[rank 2, worker 42] busy ratio: 0.643345
[rank 2, worker 43] busy ratio: 0.634188
[rank 2, worker 44] busy ratio: 0.643345
[rank 2, worker 45] busy ratio: 0.664957
[rank 2, worker 46] busy ratio: 0.626712
[rank 0, worker 6] busy ratio: 0.722603
[rank 0, worker 7] busy ratio: 0.714530
[rank 0, worker 8] busy ratio: 0.716239
[rank 0, worker 9] busy ratio: 0.703767
[rank 0, worker 10] busy ratio: 0.720137
[rank 0, worker 11] busy ratio: 0.709898
[rank 2, worker 47] busy ratio: 0.623509
[rank 2, worker 48] busy ratio: 0.645051
[rank 2, worker 49] busy ratio: 0.626280
[rank 2, worker 50] busy ratio: 0.635434
[rank 2, worker 51] busy ratio: 0.646154
[rank 2, worker 52] busy ratio: 0.650171
[rank 2, worker 53] busy ratio: 0.636519
[rank 2, worker 54] busy ratio: 0.643952
[rank 2, worker 55] busy ratio: 0.645656
[rank 0, worker 12] busy ratio: 0.709898
[rank 0, worker 13] busy ratio: 0.713311
[rank 0, worker 14] busy ratio: 0.714041
[rank 0, worker 15] busy ratio: 0.712821
[rank 0, worker 16] busy ratio: 0.712821
[rank 0, worker 17] busy ratio: 0.689420
[rank 0, worker 18] busy ratio: 0.699145
[rank 0, worker 19] busy ratio: 0.690068
[rank 0, worker 20] busy ratio: 0.698630
[rank 0, worker 21] busy ratio: 0.687713
[rank 0, worker 22] busy ratio: 0.700855
[rank 0, worker 23] busy ratio: 0.667235
[rank 0, worker 24] busy ratio: 0.682594
[rank 0, worker 25] busy ratio: 0.690598
[rank 0, worker 26] busy ratio: 0.688889
[rank 0, worker 27] busy ratio: 0.686007
[rank 0, worker 28] busy ratio: 0.729915
[rank 0, worker 29] busy ratio: 0.704778
[rank 0, worker 30] busy ratio: 0.690598
[rank 0, worker 31] busy ratio: 0.685470
[rank 0, worker 32] busy ratio: 0.684932
[rank 0, worker 33] busy ratio: 0.690476
[rank 0, worker 34] busy ratio: 0.692833
[rank 0, worker 35] busy ratio: 0.692833
[rank 0, worker 36] busy ratio: 0.695726
[rank 0, worker 37] busy ratio: 0.672913
[rank 0, worker 38] busy ratio: 0.685470
[rank 0, worker 39] busy ratio: 0.744027
[rank 0, worker 40] busy ratio: 0.675214
[rank 0, worker 41] busy ratio: 0.668942
[rank 0, worker 42] busy ratio: 0.680342
[rank 0, worker 43] busy ratio: 0.673504
[rank 0, worker 44] busy ratio: 0.668942
[rank 0, worker 45] busy ratio: 0.662692
[rank 0, worker 46] busy ratio: 0.660988
[rank 0, worker 47] busy ratio: 0.662692
[rank 0, worker 48] busy ratio: 0.678632
[rank 0, worker 49] busy ratio: 0.667802
[rank 0, worker 50] busy ratio: 0.667808
[rank 0, worker 51] busy ratio: 0.674061
[rank 0, worker 52] busy ratio: 0.678024
[rank 0, worker 53] busy ratio: 0.681431
[rank 0, worker 54] busy ratio: 0.665529
[rank 0, worker 55] busy ratio: 0.650767
Loop time of 5.88608 on 224 procs for 100 steps with 2048000 atoms

Performance: 7339.346 tau/day, 16.989 timesteps/s
3776.7% CPU use with 4 MPI tasks x 56 OpenMP threads

MPI task timing breakdown:
Section |  min time  |  avg time  |  max time  |%varavg| %total
---------------------------------------------------------------
Pair    | 1.0635     | 1.1091     | 1.1494     |   3.1 | 18.84
Neigh   | 0.2254     | 0.23715    | 0.24777    |   1.7 |  4.03
Comm    | 2.7188     | 2.9562     | 3.1789     |   9.9 | 50.22
Output  | 0.00018133 | 0.00086132 | 0.0017539  |   0.0 |  0.01
Modify  | 0.044126   | 0.061699   | 0.075001   |   4.5 |  1.05
Other   |            | 1.521      |            |       | 25.84

Nlocal:    512000 ave 512063 max 511907 min
Histogram: 1 0 0 0 1 0 0 0 0 2
Nghost:    118534 ave 118636 max 118416 min
Histogram: 1 0 0 0 0 2 0 0 0 1
Neighs:    0 ave 0 max 0 min
Histogram: 4 0 0 0 0 0 0 0 0 0
FullNghs:  3.8457e+07 ave 3.8468e+07 max 3.84444e+07 min
Histogram: 1 0 0 0 0 1 1 0 0 1

Total # of neighbors = 153828000
Ave neighs/atom = 75.1113
Neighbor list builds = 5
Dangerous builds not checked
Total wall time: 0:00:07
