LAMMPS (7 Aug 2019)
KOKKOS mode is enabled (../kokkos.cpp:85)
  will use up to 0 GPU(s) per node
  using 56 OpenMP thread(s) per MPI task
Lattice spacing in x,y,z = 1.6796 1.6796 1.6796
Created orthogonal box = (0 0 0) to (134.368 134.368 134.368)
  1 by 2 by 2 MPI processor grid
Created 2048000 atoms
  create_atoms CPU = 1.40593 secs
Neighbor list info ...
  update every 20 steps, delay 0 steps, check no
  max neighbors/atom: 2000, page size: 100000
  master list distance cutoff = 2.8
  ghost atom cutoff = 2.8
  binsize = 1.4, bins = 96 96 96
  1 neighbor lists, perpetual/occasional/extra = 1 0 0
  (1) pair lj/cut/kk, perpetual
      attributes: full, newton off, kokkos_device
      pair build: full/bin/kk/device
      stencil: full/bin/3d
      bin: kk/device
Setting up Verlet run ...
  Unit style    : lj
  Current step  : 0
  Time step     : 0.005
Per MPI rank memory allocation (min/avg/max) = 1166 | 1166 | 1166 Mbytes
Step Temp E_pair E_mol TotEng Press 
       0         1.44   -6.7733681            0   -4.6133691   -5.0196699 
     100   0.75921977   -5.7611315            0   -4.6223024   0.19208802 
[rank 0, worker 0] busy ratio: 0.933014
[rank 0, worker 1] busy ratio: 0.828162
[rank 0, worker 2] busy ratio: 0.833333
[rank 0, worker 3] busy ratio: 0.837709
[rank 3, worker 0] busy ratio: 0.940191
[rank 3, worker 1] busy ratio: 0.866029
[rank 3, worker 2] busy ratio: 0.876190
[rank 3, worker 3] busy ratio: 0.885714
[rank 3, worker 4] busy ratio: 0.861244
[rank 3, worker 5] busy ratio: 0.855107
[rank 3, worker 6] busy ratio: 0.859524
[rank 3, worker 7] busy ratio: 0.887828
[rank 3, worker 8] busy ratio: 0.880952
[rank 1, worker 0] busy ratio: 0.940191
[rank 1, worker 1] busy ratio: 0.842105
[rank 1, worker 2] busy ratio: 0.845238
[rank 1, worker 3] busy ratio: 0.849282
[rank 1, worker 4] busy ratio: 0.842482
[rank 1, worker 5] busy ratio: 0.840095
[rank 1, worker 6] busy ratio: 0.849642
[rank 1, worker 7] busy ratio: 0.847255
[rank 1, worker 8] busy ratio: 0.835322
[rank 1, worker 9] busy ratio: 0.842105
[rank 0, worker 4] busy ratio: 0.826603
[rank 0, worker 5] busy ratio: 0.844869
[rank 0, worker 6] busy ratio: 0.856802
[rank 0, worker 7] busy ratio: 0.842482
[rank 0, worker 8] busy ratio: 0.832536
[rank 0, worker 9] busy ratio: 0.854415
[rank 3, worker 9] busy ratio: 0.878860
[rank 3, worker 10] busy ratio: 0.866667
[rank 3, worker 11] busy ratio: 0.868421
[rank 3, worker 12] busy ratio: 0.864608
[rank 3, worker 13] busy ratio: 0.854415
[rank 3, worker 14] busy ratio: 0.874109
[rank 3, worker 15] busy ratio: 0.868735
[rank 3, worker 16] busy ratio: 0.859189
[rank 3, worker 17] busy ratio: 0.852029
[rank 3, worker 18] busy ratio: 0.851675
[rank 3, worker 19] busy ratio: 0.852029
[rank 3, worker 20] busy ratio: 0.845238
[rank 3, worker 21] busy ratio: 0.852029
[rank 3, worker 22] busy ratio: 0.861905
[rank 3, worker 23] busy ratio: 0.866667
[rank 3, worker 24] busy ratio: 0.850356
[rank 3, worker 25] busy ratio: 0.854762
[rank 3, worker 26] busy ratio: 0.852732
[rank 3, worker 27] busy ratio: 0.843602
[rank 3, worker 28] busy ratio: 0.821853
[rank 3, worker 29] busy ratio: 0.828162
[rank 3, worker 30] busy ratio: 0.814727
[rank 3, worker 31] busy ratio: 0.844125
[rank 1, worker 10] busy ratio: 0.835322
[rank 1, worker 11] busy ratio: 0.844125
[rank 1, worker 12] busy ratio: 0.837321
[rank 1, worker 13] busy ratio: 0.830549
[rank 1, worker 14] busy ratio: 0.837709
[rank 1, worker 15] busy ratio: 0.834928
[rank 1, worker 16] busy ratio: 0.842482
[rank 1, worker 17] busy ratio: 0.834928
[rank 1, worker 18] busy ratio: 0.837709
[rank 1, worker 19] busy ratio: 0.823389
[rank 1, worker 20] busy ratio: 0.833333
[rank 1, worker 21] busy ratio: 0.837709
[rank 1, worker 22] busy ratio: 0.830549
[rank 1, worker 23] busy ratio: 0.830549
[rank 1, worker 24] busy ratio: 0.835322
[rank 1, worker 25] busy ratio: 0.822967
[rank 1, worker 26] busy ratio: 0.825776
[rank 1, worker 27] busy ratio: 0.812950
[rank 1, worker 28] busy ratio: 0.804296
[rank 1, worker 29] busy ratio: 0.823389
[rank 1, worker 30] busy ratio: 0.811456
[rank 1, worker 31] busy ratio: 0.802381
[rank 1, worker 32] busy ratio: 0.826190
[rank 1, worker 33] busy ratio: 0.826603
[rank 0, worker 10] busy ratio: 0.842482
[rank 0, worker 11] busy ratio: 0.835322
[rank 3, worker 32] busy ratio: 0.816229
[rank 3, worker 33] busy ratio: 0.821429
[rank 3, worker 34] busy ratio: 0.828571
[rank 1, worker 34] busy ratio: 0.814286
[rank 1, worker 35] busy ratio: 0.807143
[rank 1, worker 36] busy ratio: 0.811456
[rank 0, worker 12] busy ratio: 0.835322
[rank 0, worker 13] busy ratio: 0.842857
[rank 3, worker 35] busy ratio: 0.819048
[rank 3, worker 36] busy ratio: 0.811456
[rank 1, worker 37] busy ratio: 0.809976
[rank 1, worker 38] busy ratio: 0.818182
[rank 0, worker 14] busy ratio: 0.840476
[rank 0, worker 15] busy ratio: 0.832936
[rank 0, worker 16] busy ratio: 0.830952
[rank 3, worker 37] busy ratio: 0.811905
[rank 3, worker 38] busy ratio: 0.821853
[rank 1, worker 39] busy ratio: 0.821429
[rank 1, worker 40] busy ratio: 0.809976
[rank 2, worker 0] busy ratio: 0.954654
[rank 2, worker 1] busy ratio: 0.795238
[rank 2, worker 2] busy ratio: 0.828571
[rank 2, worker 3] busy ratio: 0.833333
[rank 2, worker 4] busy ratio: 0.830952
[rank 2, worker 5] busy ratio: 0.814286
[rank 2, worker 6] busy ratio: 0.811456
[rank 2, worker 7] busy ratio: 0.817102
[rank 0, worker 17] busy ratio: 0.824228
[rank 0, worker 18] busy ratio: 0.826603
[rank 3, worker 39] busy ratio: 0.825359
[rank 3, worker 40] busy ratio: 0.826190
[rank 1, worker 41] busy ratio: 0.821002
[rank 1, worker 42] busy ratio: 0.809976
[rank 1, worker 43] busy ratio: 0.814286
[rank 1, worker 44] busy ratio: 0.812352
[rank 1, worker 45] busy ratio: 0.812352
[rank 0, worker 19] busy ratio: 0.842482
[rank 0, worker 20] busy ratio: 0.833729
[rank 0, worker 21] busy ratio: 0.828162
[rank 0, worker 22] busy ratio: 0.838480
[rank 0, worker 23] busy ratio: 0.823810
[rank 0, worker 24] busy ratio: 0.828162
[rank 0, worker 25] busy ratio: 0.828162
[rank 3, worker 41] busy ratio: 0.823810
[rank 3, worker 42] busy ratio: 0.815789
[rank 3, worker 43] busy ratio: 0.820574
[rank 3, worker 44] busy ratio: 0.805226
[rank 3, worker 45] busy ratio: 0.813842
[rank 1, worker 46] busy ratio: 0.811456
[rank 1, worker 47] busy ratio: 0.804296
[rank 0, worker 26] busy ratio: 0.833729
[rank 0, worker 27] busy ratio: 0.826603
[rank 3, worker 46] busy ratio: 0.821429
[rank 3, worker 47] busy ratio: 0.816667
[rank 1, worker 48] busy ratio: 0.825776
[rank 1, worker 49] busy ratio: 0.799043
[rank 1, worker 50] busy ratio: 0.807143
[rank 0, worker 28] busy ratio: 0.838095
[rank 0, worker 29] busy ratio: 0.830549
[rank 3, worker 48] busy ratio: 0.823389
[rank 3, worker 49] busy ratio: 0.814286
[rank 1, worker 51] busy ratio: 0.801909
[rank 1, worker 52] busy ratio: 0.816229
[rank 2, worker 8] busy ratio: 0.821429
[rank 2, worker 9] busy ratio: 0.805687
[rank 2, worker 10] busy ratio: 0.804762
[rank 2, worker 11] busy ratio: 0.821853
[rank 2, worker 12] busy ratio: 0.811905
[rank 2, worker 13] busy ratio: 0.814286
[rank 2, worker 14] busy ratio: 0.826190
[rank 2, worker 15] busy ratio: 0.811905
[rank 2, worker 16] busy ratio: 0.799523
[rank 2, worker 17] busy ratio: 0.802381
[rank 2, worker 18] busy ratio: 0.806683
[rank 2, worker 19] busy ratio: 0.800000
[rank 2, worker 20] busy ratio: 0.792363
[rank 2, worker 21] busy ratio: 0.803318
[rank 2, worker 22] busy ratio: 0.800000
[rank 2, worker 23] busy ratio: 0.802850
[rank 2, worker 24] busy ratio: 0.794258
[rank 2, worker 25] busy ratio: 0.793349
[rank 2, worker 26] busy ratio: 0.801909
[rank 2, worker 27] busy ratio: 0.789976
[rank 2, worker 28] busy ratio: 0.771429
[rank 2, worker 29] busy ratio: 0.764846
[rank 0, worker 30] busy ratio: 0.840095
[rank 0, worker 31] busy ratio: 0.840855
[rank 0, worker 32] busy ratio: 0.814286
[rank 3, worker 50] busy ratio: 0.823389
[rank 3, worker 51] busy ratio: 0.821002
[rank 1, worker 53] busy ratio: 0.814727
[rank 1, worker 54] busy ratio: 0.811905
[rank 2, worker 30] busy ratio: 0.764846
[rank 2, worker 31] busy ratio: 0.755924
[rank 2, worker 32] busy ratio: 0.782816
[rank 0, worker 33] busy ratio: 0.826603
[rank 0, worker 34] busy ratio: 0.825776
[rank 3, worker 52] busy ratio: 0.809524
[rank 3, worker 53] busy ratio: 0.823389
[rank 1, worker 55] busy ratio: 0.818182
[rank 2, worker 33] busy ratio: 0.782297
[rank 2, worker 34] busy ratio: 0.762470
[rank 0, worker 35] busy ratio: 0.833729
[rank 0, worker 36] busy ratio: 0.830549
[rank 3, worker 54] busy ratio: 0.811456
[rank 3, worker 55] busy ratio: 0.823810
[rank 2, worker 35] busy ratio: 0.757143
[rank 2, worker 36] busy ratio: 0.765403
[rank 0, worker 37] busy ratio: 0.840476
[rank 0, worker 38] busy ratio: 0.828162
[rank 0, worker 39] busy ratio: 0.838480
[rank 2, worker 37] busy ratio: 0.762470
[rank 2, worker 38] busy ratio: 0.769596
[rank 0, worker 40] busy ratio: 0.830952
[rank 0, worker 41] busy ratio: 0.816667
[rank 2, worker 39] busy ratio: 0.761905
[rank 2, worker 40] busy ratio: 0.764286
[rank 2, worker 41] busy ratio: 0.769048
[rank 2, worker 42] busy ratio: 0.783848
[rank 2, worker 43] busy ratio: 0.753555
[rank 0, worker 42] busy ratio: 0.821429
[rank 0, worker 43] busy ratio: 0.830549
[rank 2, worker 44] busy ratio: 0.752381
[rank 2, worker 45] busy ratio: 0.765403
[rank 0, worker 44] busy ratio: 0.825776
[rank 0, worker 45] busy ratio: 0.833333
[rank 0, worker 46] busy ratio: 0.831354
[rank 2, worker 46] busy ratio: 0.761905
[rank 2, worker 47] busy ratio: 0.752969
[rank 0, worker 47] busy ratio: 0.831354
[rank 0, worker 48] busy ratio: 0.821429
[rank 2, worker 48] busy ratio: 0.757143
[rank 2, worker 49] busy ratio: 0.745238
[rank 2, worker 50] busy ratio: 0.767221
[rank 0, worker 49] busy ratio: 0.821429
[rank 0, worker 50] busy ratio: 0.840476
[rank 2, worker 51] busy ratio: 0.754762
[rank 2, worker 52] busy ratio: 0.772512
[rank 0, worker 51] busy ratio: 0.833333
[rank 0, worker 52] busy ratio: 0.835322
[rank 0, worker 53] busy ratio: 0.835714
[rank 2, worker 53] busy ratio: 0.751185
[rank 2, worker 54] busy ratio: 0.759524
[rank 0, worker 54] busy ratio: 0.828571
[rank 0, worker 55] busy ratio: 0.811905
[rank 2, worker 55] busy ratio: 0.760095
Loop time of 4.20752 on 224 procs for 100 steps with 2048000 atoms

Performance: 10267.338 tau/day, 23.767 timesteps/s
4515.5% CPU use with 4 MPI tasks x 56 OpenMP threads

MPI task timing breakdown:
Section |  min time  |  avg time  |  max time  |%varavg| %total
---------------------------------------------------------------
Pair    | 1.0226     | 1.0795     | 1.1469     |   4.4 | 25.66
Neigh   | 0.22425    | 0.24434    | 0.27762    |   4.1 |  5.81
Comm    | 1.3042     | 1.5039     | 1.8853     |  18.8 | 35.74
Output  | 0.00013403 | 0.0058834  | 0.0095914  |   4.9 |  0.14
Modify  | 0.045637   | 0.080336   | 0.11073    |   8.6 |  1.91
Other   |            | 1.294      |            |       | 30.74

Nlocal:    512000 ave 512063 max 511907 min
Histogram: 1 0 0 0 1 0 0 0 0 2
Nghost:    118534 ave 118636 max 118416 min
Histogram: 1 0 0 0 0 2 0 0 0 1
Neighs:    0 ave 0 max 0 min
Histogram: 4 0 0 0 0 0 0 0 0 0
FullNghs:  3.8457e+07 ave 3.8468e+07 max 3.84444e+07 min
Histogram: 1 0 0 0 0 1 1 0 0 1

Total # of neighbors = 153828000
Ave neighs/atom = 75.1113
Neighbor list builds = 5
Dangerous builds not checked
Total wall time: 0:00:06
