LAMMPS (7 Aug 2019)
KOKKOS mode is enabled (../kokkos.cpp:85)
  will use up to 0 GPU(s) per node
  using 56 OpenMP thread(s) per MPI task
Lattice spacing in x,y,z = 1.6796 1.6796 1.6796
Created orthogonal box = (0 0 0) to (335.919 335.919 335.919)
  1 by 2 by 2 MPI processor grid
Created 32000000 atoms
  create_atoms CPU = 10.526 secs
Neighbor list info ...
  update every 20 steps, delay 0 steps, check no
  max neighbors/atom: 2000, page size: 100000
  master list distance cutoff = 2.8
  ghost atom cutoff = 2.8
  binsize = 1.4, bins = 240 240 240
  1 neighbor lists, perpetual/occasional/extra = 1 0 0
  (1) pair lj/cut/kk, perpetual
      attributes: full, newton off, kokkos_device
      pair build: full/bin/kk/device
      stencil: full/bin/3d
      bin: kk/device
Setting up Verlet run ...
  Unit style    : lj
  Current step  : 0
  Time step     : 0.005
Per MPI rank memory allocation (min/avg/max) = 1.584e+04 | 1.584e+04 | 1.584e+04 Mbytes
Step Temp E_pair E_mol TotEng Press 
       0         1.44   -6.7733681            0   -4.6133681   -5.0196693 
     100   0.75941602   -5.7614399            0   -4.6223159   0.19027589 
[rank 0, worker 0] busy ratio: 0.986152
[rank 0, worker 1] busy ratio: 0.837988
[rank 0, worker 2] busy ratio: 0.848773
[rank 0, worker 3] busy ratio: 0.847813
[rank 3, worker 0] busy ratio: 0.994856
[rank 3, worker 1] busy ratio: 0.684367
[rank 3, worker 2] busy ratio: 0.682637
[rank 3, worker 3] busy ratio: 0.683356
[rank 3, worker 4] busy ratio: 0.660463
[rank 3, worker 5] busy ratio: 0.641939
[rank 3, worker 6] busy ratio: 0.642122
[rank 3, worker 7] busy ratio: 0.689355
[rank 1, worker 0] busy ratio: 0.994069
[rank 1, worker 1] busy ratio: 0.854625
[rank 1, worker 2] busy ratio: 0.856097
[rank 1, worker 3] busy ratio: 0.860083
[rank 1, worker 4] busy ratio: 0.708532
[rank 1, worker 5] busy ratio: 0.647164
[rank 1, worker 6] busy ratio: 0.628962
[rank 1, worker 7] busy ratio: 0.864662
[rank 1, worker 8] busy ratio: 0.866245
[rank 3, worker 8] busy ratio: 0.697863
[rank 3, worker 9] busy ratio: 0.697785
[rank 3, worker 10] busy ratio: 0.654006
[rank 3, worker 11] busy ratio: 0.652286
[rank 3, worker 12] busy ratio: 0.650247
[rank 3, worker 13] busy ratio: 0.648793
[rank 3, worker 14] busy ratio: 0.697923
[rank 3, worker 15] busy ratio: 0.696538
[rank 3, worker 16] busy ratio: 0.698852
[rank 3, worker 17] busy ratio: 0.704253
[rank 3, worker 18] busy ratio: 0.651959
[rank 3, worker 19] busy ratio: 0.645034
[rank 3, worker 20] busy ratio: 0.649842
[rank 3, worker 21] busy ratio: 0.705638
[rank 3, worker 22] busy ratio: 0.702334
[rank 0, worker 4] busy ratio: 0.689162
[rank 0, worker 5] busy ratio: 0.638040
[rank 0, worker 6] busy ratio: 0.622350
[rank 0, worker 7] busy ratio: 0.851969
[rank 0, worker 8] busy ratio: 0.857115
[rank 0, worker 9] busy ratio: 0.857934
[rank 0, worker 10] busy ratio: 0.618982
[rank 0, worker 11] busy ratio: 0.596714
[rank 0, worker 12] busy ratio: 0.596634
[rank 3, worker 23] busy ratio: 0.703799
[rank 3, worker 24] busy ratio: 0.648595
[rank 3, worker 25] busy ratio: 0.634745
[rank 0, worker 13] busy ratio: 0.600594
[rank 0, worker 14] busy ratio: 0.860083
[rank 0, worker 15] busy ratio: 0.854146
[rank 3, worker 26] busy ratio: 0.636382
[rank 3, worker 27] busy ratio: 0.630048
[rank 1, worker 9] busy ratio: 0.871389
[rank 1, worker 10] busy ratio: 0.603564
[rank 1, worker 11] busy ratio: 0.591521
[rank 1, worker 12] busy ratio: 0.588119
[rank 1, worker 13] busy ratio: 0.560879
[rank 1, worker 14] busy ratio: 0.870821
[rank 1, worker 15] busy ratio: 0.866614
[rank 1, worker 16] busy ratio: 0.869385
[rank 1, worker 17] busy ratio: 0.874753
[rank 1, worker 18] busy ratio: 0.601940
[rank 1, worker 19] busy ratio: 0.558789
[rank 1, worker 20] busy ratio: 0.559668
[rank 1, worker 21] busy ratio: 0.878686
[rank 1, worker 22] busy ratio: 0.823273
[rank 0, worker 16] busy ratio: 0.860281
[rank 0, worker 17] busy ratio: 0.860704
[rank 3, worker 28] busy ratio: 0.623194
[rank 3, worker 29] busy ratio: 0.598179
[rank 3, worker 30] busy ratio: 0.602930
[rank 1, worker 23] busy ratio: 0.866469
[rank 1, worker 24] busy ratio: 0.613267
[rank 1, worker 25] busy ratio: 0.563823
[rank 0, worker 18] busy ratio: 0.586221
[rank 0, worker 19] busy ratio: 0.588282
[rank 3, worker 31] busy ratio: 0.605461
[rank 3, worker 32] busy ratio: 0.593428
[rank 1, worker 26] busy ratio: 0.549485
[rank 1, worker 27] busy ratio: 0.539588
[rank 0, worker 20] busy ratio: 0.609186
[rank 0, worker 21] busy ratio: 0.860930
[rank 3, worker 33] busy ratio: 0.595568
[rank 3, worker 34] busy ratio: 0.598536
[rank 3, worker 35] busy ratio: 0.607362
[rank 1, worker 28] busy ratio: 0.567070
[rank 1, worker 29] busy ratio: 0.512176
[rank 0, worker 22] busy ratio: 0.822051
[rank 0, worker 23] busy ratio: 0.865822
[rank 3, worker 36] busy ratio: 0.598536
[rank 3, worker 37] busy ratio: 0.603087
[rank 3, worker 38] busy ratio: 0.592996
[rank 1, worker 30] busy ratio: 0.508116
[rank 1, worker 31] busy ratio: 0.505442
[rank 0, worker 24] busy ratio: 0.594338
[rank 0, worker 25] busy ratio: 0.596832
[rank 3, worker 39] busy ratio: 0.595370
[rank 3, worker 40] busy ratio: 0.593905
[rank 1, worker 32] busy ratio: 0.483079
[rank 1, worker 33] busy ratio: 0.484069
[rank 0, worker 26] busy ratio: 0.573154
[rank 0, worker 27] busy ratio: 0.572842
[rank 3, worker 41] busy ratio: 0.597269
[rank 3, worker 42] busy ratio: 0.607921
[rank 3, worker 43] busy ratio: 0.601227
[rank 1, worker 34] busy ratio: 0.478330
[rank 1, worker 35] busy ratio: 0.519398
[rank 0, worker 28] busy ratio: 0.552230
[rank 0, worker 29] busy ratio: 0.514653
[rank 0, worker 30] busy ratio: 0.509505
[rank 0, worker 31] busy ratio: 0.511876
[rank 0, worker 32] busy ratio: 0.500792
[rank 0, worker 33] busy ratio: 0.552257
[rank 0, worker 34] busy ratio: 0.494260
[rank 3, worker 44] busy ratio: 0.601108
[rank 3, worker 45] busy ratio: 0.591206
[rank 1, worker 36] busy ratio: 0.487829
[rank 1, worker 37] busy ratio: 0.489703
[rank 1, worker 38] busy ratio: 0.512470
[rank 1, worker 39] busy ratio: 0.471799
[rank 1, worker 40] busy ratio: 0.485256
[rank 0, worker 35] busy ratio: 0.505938
[rank 0, worker 36] busy ratio: 0.508511
[rank 3, worker 46] busy ratio: 0.593985
[rank 3, worker 47] busy ratio: 0.591926
[rank 1, worker 41] busy ratio: 0.478726
[rank 1, worker 42] busy ratio: 0.490204
[rank 0, worker 37] busy ratio: 0.495050
[rank 0, worker 38] busy ratio: 0.485352
[rank 3, worker 48] busy ratio: 0.594937
[rank 3, worker 49] busy ratio: 0.600317
[rank 3, worker 50] busy ratio: 0.601187
[rank 1, worker 43] busy ratio: 0.485256
[rank 1, worker 44] busy ratio: 0.484063
[rank 0, worker 39] busy ratio: 0.493666
[rank 0, worker 40] busy ratio: 0.518218
[rank 3, worker 51] busy ratio: 0.603482
[rank 3, worker 52] busy ratio: 0.596477
[rank 1, worker 45] busy ratio: 0.485256
[rank 1, worker 46] busy ratio: 0.471601
[rank 0, worker 41] busy ratio: 0.482185
[rank 0, worker 42] busy ratio: 0.481789
[rank 3, worker 53] busy ratio: 0.595054
[rank 3, worker 54] busy ratio: 0.594300
[rank 2, worker 0] busy ratio: 0.992289
[rank 2, worker 1] busy ratio: 0.852219
[rank 2, worker 2] busy ratio: 0.855333
[rank 2, worker 3] busy ratio: 0.855927
[rank 2, worker 4] busy ratio: 0.703233
[rank 2, worker 5] busy ratio: 0.652062
[rank 2, worker 6] busy ratio: 0.646267
[rank 2, worker 7] busy ratio: 0.858528
[rank 2, worker 8] busy ratio: 0.869436
[rank 2, worker 9] busy ratio: 0.860732
[rank 1, worker 47] busy ratio: 0.485154
[rank 1, worker 48] busy ratio: 0.481298
[rank 0, worker 43] busy ratio: 0.486941
[rank 0, worker 44] busy ratio: 0.480902
[rank 3, worker 55] busy ratio: 0.596082
[rank 2, worker 10] busy ratio: 0.618416
[rank 2, worker 11] busy ratio: 0.639153
[rank 2, worker 12] busy ratio: 0.597940
[rank 2, worker 13] busy ratio: 0.610253
[rank 2, worker 14] busy ratio: 0.873788
[rank 2, worker 15] busy ratio: 0.875173
[rank 2, worker 16] busy ratio: 0.871242
[rank 2, worker 17] busy ratio: 0.881108
[rank 2, worker 18] busy ratio: 0.595644
[rank 2, worker 19] busy ratio: 0.586023
[rank 2, worker 20] busy ratio: 0.610924
[rank 2, worker 21] busy ratio: 0.826672
[rank 2, worker 22] busy ratio: 0.830827
[rank 2, worker 23] busy ratio: 0.873788
[rank 1, worker 49] busy ratio: 0.470518
[rank 1, worker 50] busy ratio: 0.480902
[rank 0, worker 45] busy ratio: 0.492079
[rank 0, worker 46] busy ratio: 0.483373
[rank 2, worker 24] busy ratio: 0.583333
[rank 2, worker 25] busy ratio: 0.570156
[rank 2, worker 26] busy ratio: 0.550673
[rank 1, worker 51] busy ratio: 0.500099
[rank 1, worker 52] busy ratio: 0.487829
[rank 0, worker 47] busy ratio: 0.478631
[rank 0, worker 48] busy ratio: 0.479810
[rank 0, worker 49] busy ratio: 0.513460
[rank 0, worker 50] busy ratio: 0.482390
[rank 0, worker 51] busy ratio: 0.481694
[rank 2, worker 27] busy ratio: 0.558480
[rank 2, worker 28] busy ratio: 0.558748
[rank 1, worker 53] busy ratio: 0.463395
[rank 1, worker 54] busy ratio: 0.475069
[rank 0, worker 52] busy ratio: 0.487824
[rank 0, worker 53] busy ratio: 0.497823
[rank 0, worker 54] busy ratio: 0.473382
[rank 2, worker 29] busy ratio: 0.518409
[rank 2, worker 30] busy ratio: 0.497922
[rank 1, worker 55] busy ratio: 0.579323
[rank 0, worker 55] busy ratio: 0.571966
[rank 2, worker 31] busy ratio: 0.513160
[rank 2, worker 32] busy ratio: 0.503859
[rank 2, worker 33] busy ratio: 0.589947
[rank 2, worker 34] busy ratio: 0.492676
[rank 2, worker 35] busy ratio: 0.503167
[rank 2, worker 36] busy ratio: 0.519691
[rank 2, worker 37] busy ratio: 0.498318
[rank 2, worker 38] busy ratio: 0.492183
[rank 2, worker 39] busy ratio: 0.493273
[rank 2, worker 40] busy ratio: 0.559778
[rank 2, worker 41] busy ratio: 0.484663
[rank 2, worker 42] busy ratio: 0.486042
[rank 2, worker 43] busy ratio: 0.523649
[rank 2, worker 44] busy ratio: 0.488814
[rank 2, worker 45] busy ratio: 0.491888
[rank 2, worker 46] busy ratio: 0.489016
[rank 2, worker 47] busy ratio: 0.473288
[rank 2, worker 48] busy ratio: 0.469634
[rank 2, worker 49] busy ratio: 0.518401
[rank 2, worker 50] busy ratio: 0.476360
[rank 2, worker 51] busy ratio: 0.479715
[rank 2, worker 52] busy ratio: 0.495747
Loop time of 50.5547 on 224 procs for 100 steps with 32000000 atoms

[rank 2, worker 53] busy ratio: 0.499307
[rank 2, worker 54] busy ratio: 0.472893
[rank 2, worker 55] busy ratio: 0.583135
Performance: 854.520 tau/day, 1.978 timesteps/s
3448.9% CPU use with 4 MPI tasks x 56 OpenMP threads

MPI task timing breakdown:
Section |  min time  |  avg time  |  max time  |%varavg| %total
---------------------------------------------------------------
Pair    | 30.221     | 36.949     | 39.716     |  64.2 | 73.09
Neigh   | 3.7053     | 3.8585     | 4.0158     |   6.0 |  7.63
Comm    | 3.3121     | 6.4204     | 12.74      | 146.1 | 12.70
Output  | 0.0022359  | 0.068303   | 0.17386    |  27.0 |  0.14
Modify  | 1.0039     | 1.1836     | 1.2685     |   9.9 |  2.34
Other   |            | 2.075      |            |       |  4.10

Nlocal:    8e+06 ave 8.00017e+06 max 7.99976e+06 min
Histogram: 1 0 0 0 0 0 2 0 0 1
Nghost:    711029 ave 711274 max 710914 min
Histogram: 2 0 1 0 0 0 0 0 0 1
Neighs:    0 ave 0 max 0 min
Histogram: 4 0 0 0 0 0 0 0 0 0
FullNghs:  6.00869e+08 ave 6.00884e+08 max 6.0085e+08 min
Histogram: 1 0 0 0 0 1 1 0 0 1

Total # of neighbors = 2.40348e+09
Ave neighs/atom = 75.1087
Neighbor list builds = 5
Dangerous builds not checked
Total wall time: 0:01:05
