LAMMPS (7 Aug 2019)
KOKKOS mode is enabled (../kokkos.cpp:85)
  will use up to 0 GPU(s) per node
  using 56 OpenMP thread(s) per MPI task
Lattice spacing in x,y,z = 1.6796 1.6796 1.6796
Created orthogonal box = (0 0 0) to (335.919 335.919 335.919)
  1 by 2 by 2 MPI processor grid
Created 32000000 atoms
  create_atoms CPU = 9.88151 secs
Neighbor list info ...
  update every 20 steps, delay 0 steps, check no
  max neighbors/atom: 2000, page size: 100000
  master list distance cutoff = 2.8
  ghost atom cutoff = 2.8
  binsize = 1.4, bins = 240 240 240
  1 neighbor lists, perpetual/occasional/extra = 1 0 0
  (1) pair lj/cut/kk, perpetual
      attributes: full, newton off, kokkos_device
      pair build: full/bin/kk/device
      stencil: full/bin/3d
      bin: kk/device
Setting up Verlet run ...
  Unit style    : lj
  Current step  : 0
  Time step     : 0.005
Per MPI rank memory allocation (min/avg/max) = 1.584e+04 | 1.584e+04 | 1.584e+04 Mbytes
Step Temp E_pair E_mol TotEng Press 
       0         1.44   -6.7733681            0   -4.6133681   -5.0196693 
     100   0.75941602   -5.7614399            0   -4.6223159   0.19027589 
[rank 0, worker 0] busy ratio: 0.946340
[rank 0, worker 1] busy ratio: 0.840426
[rank 0, worker 2] busy ratio: 0.839021
[rank 0, worker 3] busy ratio: 0.844214
[rank 0, worker 4] busy ratio: 0.847713
[rank 1, worker 0] busy ratio: 0.947303
[rank 1, worker 1] busy ratio: 0.863041
[rank 1, worker 2] busy ratio: 0.856931
[rank 1, worker 3] busy ratio: 0.860638
[rank 1, worker 4] busy ratio: 0.844005
[rank 1, worker 5] busy ratio: 0.834363
[rank 1, worker 6] busy ratio: 0.835640
[rank 1, worker 7] busy ratio: 0.862120
[rank 1, worker 8] busy ratio: 0.858908
[rank 1, worker 9] busy ratio: 0.857708
[rank 1, worker 10] busy ratio: 0.837617
[rank 1, worker 11] busy ratio: 0.841572
[rank 1, worker 12] busy ratio: 0.838112
[rank 1, worker 13] busy ratio: 0.836876
[rank 1, worker 14] busy ratio: 0.864805
[rank 1, worker 15] busy ratio: 0.863816
[rank 1, worker 16] busy ratio: 0.863850
[rank 1, worker 17] busy ratio: 0.860850
[rank 1, worker 18] busy ratio: 0.838646
[rank 1, worker 19] busy ratio: 0.843588
[rank 1, worker 20] busy ratio: 0.846553
[rank 1, worker 21] busy ratio: 0.865893
[rank 1, worker 22] busy ratio: 0.857743
[rank 1, worker 23] busy ratio: 0.863636
[rank 1, worker 24] busy ratio: 0.837658
[rank 1, worker 25] busy ratio: 0.833869
[rank 1, worker 26] busy ratio: 0.850470
[rank 1, worker 27] busy ratio: 0.832674
[rank 1, worker 28] busy ratio: 0.706406
[rank 1, worker 29] busy ratio: 0.690235
[rank 1, worker 30] busy ratio: 0.699283
[rank 1, worker 31] busy ratio: 0.725834
[rank 1, worker 32] busy ratio: 0.699703
[rank 1, worker 33] busy ratio: 0.709693
[rank 1, worker 34] busy ratio: 0.690635
[rank 1, worker 35] busy ratio: 0.707612
[rank 1, worker 36] busy ratio: 0.686357
[rank 1, worker 37] busy ratio: 0.688504
[rank 1, worker 38] busy ratio: 0.729182
[rank 1, worker 39] busy ratio: 0.691053
[rank 1, worker 40] busy ratio: 0.709414
[rank 1, worker 41] busy ratio: 0.694341
[rank 1, worker 42] busy ratio: 0.685030
[rank 1, worker 43] busy ratio: 0.682144
[rank 1, worker 44] busy ratio: 0.679189
[rank 1, worker 45] busy ratio: 0.687747
[rank 0, worker 5] busy ratio: 0.839061
[rank 0, worker 6] busy ratio: 0.832880
[rank 0, worker 7] busy ratio: 0.833169
[rank 0, worker 8] busy ratio: 0.840544
[rank 0, worker 9] busy ratio: 0.833375
[rank 0, worker 10] busy ratio: 0.834570
[rank 0, worker 11] busy ratio: 0.840791
[rank 0, worker 12] busy ratio: 0.840830
[rank 0, worker 13] busy ratio: 0.845241
[rank 0, worker 14] busy ratio: 0.842105
[rank 0, worker 15] busy ratio: 0.840544
[rank 0, worker 16] busy ratio: 0.845032
[rank 0, worker 17] busy ratio: 0.845526
[rank 0, worker 18] busy ratio: 0.843549
[rank 0, worker 19] busy ratio: 0.843549
[rank 0, worker 20] busy ratio: 0.847751
[rank 0, worker 21] busy ratio: 0.849197
[rank 0, worker 22] busy ratio: 0.829419
[rank 1, worker 46] busy ratio: 0.685368
[rank 1, worker 47] busy ratio: 0.716156
[rank 1, worker 48] busy ratio: 0.714039
[rank 1, worker 49] busy ratio: 0.700717
[rank 1, worker 50] busy ratio: 0.713261
[rank 1, worker 51] busy ratio: 0.719229
[rank 1, worker 52] busy ratio: 0.705461
[rank 1, worker 53] busy ratio: 0.687176
[rank 1, worker 54] busy ratio: 0.678854
[rank 1, worker 55] busy ratio: 0.727879
[rank 0, worker 23] busy ratio: 0.849197
[rank 0, worker 24] busy ratio: 0.857178
[rank 0, worker 25] busy ratio: 0.839555
[rank 0, worker 26] busy ratio: 0.845983
[rank 0, worker 27] busy ratio: 0.843302
[rank 0, worker 28] busy ratio: 0.794510
[rank 0, worker 29] busy ratio: 0.826947
[rank 0, worker 30] busy ratio: 0.809194
[rank 0, worker 31] busy ratio: 0.816518
[rank 0, worker 32] busy ratio: 0.814586
[rank 0, worker 33] busy ratio: 0.831933
[rank 0, worker 34] busy ratio: 0.799159
[rank 0, worker 35] busy ratio: 0.826001
[rank 0, worker 36] busy ratio: 0.826990
[rank 0, worker 37] busy ratio: 0.815328
[rank 0, worker 38] busy ratio: 0.826248
[rank 0, worker 39] busy ratio: 0.792831
[rank 0, worker 40] busy ratio: 0.822294
[rank 0, worker 41] busy ratio: 0.807018
[rank 0, worker 42] busy ratio: 0.828967
[rank 0, worker 43] busy ratio: 0.802027
[rank 0, worker 44] busy ratio: 0.817643
[rank 0, worker 45] busy ratio: 0.814632
[rank 0, worker 46] busy ratio: 0.812902
[rank 0, worker 47] busy ratio: 0.803311
[rank 0, worker 48] busy ratio: 0.825464
[rank 0, worker 49] busy ratio: 0.837905
[rank 0, worker 50] busy ratio: 0.825216
[rank 0, worker 51] busy ratio: 0.824475
[rank 0, worker 52] busy ratio: 0.824271
[rank 0, worker 53] busy ratio: 0.809983
[rank 0, worker 54] busy ratio: 0.787939
[rank 0, worker 55] busy ratio: 0.820361
Loop time of 40.4752 on 224 procs for 100 steps with 32000000 atoms

Performance: 1067.320 tau/day, 2.471 timesteps/s
4377.3% CPU use with 4 MPI tasks x 56 OpenMP threads
[rank 2, worker 0] busy ratio: 0.962890
[rank 2, worker 1] busy ratio: 0.842561
[rank 2, worker 2] busy ratio: 0.847009
[rank 2, worker 3] busy ratio: 0.843796
[rank 2, worker 4] busy ratio: 0.835434
[rank 2, worker 5] busy ratio: 0.826001
[rank 2, worker 6] busy ratio: 0.830161
[rank 2, worker 7] busy ratio: 0.837865
[rank 2, worker 8] busy ratio: 0.848283
[rank 2, worker 9] busy ratio: 0.843874
[rank 2, worker 10] busy ratio: 0.824561
[rank 2, worker 11] busy ratio: 0.817103
[rank 2, worker 12] busy ratio: 0.825260
[rank 2, worker 13] busy ratio: 0.821305
[rank 2, worker 14] busy ratio: 0.850296
[rank 2, worker 15] busy ratio: 0.842352
[rank 2, worker 16] busy ratio: 0.848492
[rank 2, worker 17] busy ratio: 0.852236
[rank 2, worker 18] busy ratio: 0.826990
[rank 2, worker 19] busy ratio: 0.814430
[rank 2, worker 20] busy ratio: 0.826947
[rank 2, worker 21] busy ratio: 0.850680
[rank 2, worker 22] busy ratio: 0.845109
[rank 2, worker 23] busy ratio: 0.853930
[rank 2, worker 24] busy ratio: 0.822744
[rank 2, worker 25] busy ratio: 0.816115
[rank 2, worker 26] busy ratio: 0.831602
[rank 2, worker 27] busy ratio: 0.816654
[rank 2, worker 28] busy ratio: 0.714886
[rank 2, worker 29] busy ratio: 0.711034
[rank 2, worker 30] busy ratio: 0.717993
[rank 2, worker 31] busy ratio: 0.725655
[rank 2, worker 32] busy ratio: 0.701754
[rank 2, worker 33] busy ratio: 0.743577
[rank 2, worker 34] busy ratio: 0.712237
[rank 2, worker 35] busy ratio: 0.701533
[rank 2, worker 36] busy ratio: 0.728755
[rank 2, worker 37] busy ratio: 0.704545
[rank 2, worker 38] busy ratio: 0.717144
[rank 2, worker 39] busy ratio: 0.715274
[rank 2, worker 40] busy ratio: 0.744255
[rank 2, worker 41] busy ratio: 0.710403
[rank 2, worker 42] busy ratio: 0.695921
[rank 2, worker 43] busy ratio: 0.720217
[rank 2, worker 44] busy ratio: 0.717321
[rank 2, worker 45] busy ratio: 0.708880

MPI task timing breakdown:
Section |  min time  |  avg time  |  max time  |%varavg| %total
---------------------------------------------------------------
[rank 2, worker 46] busy ratio: 0.723252
[rank 2, worker 47] busy ratio: 0.702222
[rank 2, worker 48] busy ratio: 0.707757
[rank 2, worker 49] busy ratio: 0.706449
[rank 2, worker 50] busy ratio: 0.716333
[rank 2, worker 51] busy ratio: 0.724419
[rank 2, worker 52] busy ratio: 0.736842
[rank 2, worker 53] busy ratio: 0.723252
[rank 2, worker 54] busy ratio: 0.714921
[rank 2, worker 55] busy ratio: 0.739614
[rank 3, worker 0] busy ratio: 0.972092
[rank 3, worker 1] busy ratio: 0.804848
[rank 3, worker 2] busy ratio: 0.811078
[rank 3, worker 3] busy ratio: 0.807321
[rank 3, worker 4] busy ratio: 0.791739
[rank 3, worker 5] busy ratio: 0.788081
[rank 3, worker 6] busy ratio: 0.786845
[rank 3, worker 7] busy ratio: 0.805192
[rank 3, worker 8] busy ratio: 0.805192
[rank 3, worker 9] busy ratio: 0.809842
[rank 3, worker 10] busy ratio: 0.784372
[rank 3, worker 11] busy ratio: 0.783136
[rank 3, worker 12] busy ratio: 0.782996
[rank 3, worker 13] busy ratio: 0.782942
[rank 3, worker 14] busy ratio: 0.805686
[rank 3, worker 15] busy ratio: 0.807417
[rank 3, worker 16] busy ratio: 0.800791
[rank 3, worker 17] busy ratio: 0.803660
[rank 3, worker 18] busy ratio: 0.792439
[rank 3, worker 19] busy ratio: 0.794365
[rank 3, worker 20] busy ratio: 0.782641
[rank 3, worker 21] busy ratio: 0.805933
[rank 3, worker 22] busy ratio: 0.807711
[rank 3, worker 23] busy ratio: 0.806428
[rank 3, worker 24] busy ratio: 0.785467
[rank 3, worker 25] busy ratio: 0.777695
[rank 3, worker 26] busy ratio: 0.790709
[rank 3, worker 27] busy ratio: 0.779372
[rank 3, worker 28] busy ratio: 0.748392
[rank 3, worker 29] busy ratio: 0.752473
[rank 3, worker 30] busy ratio: 0.762058
[rank 3, worker 31] busy ratio: 0.744186
[rank 3, worker 32] busy ratio: 0.761434
[rank 3, worker 33] busy ratio: 0.763542
[rank 3, worker 34] busy ratio: 0.770277
[rank 3, worker 35] busy ratio: 0.749011
[rank 3, worker 36] busy ratio: 0.754204
[rank 3, worker 37] busy ratio: 0.756489
[rank 3, worker 38] busy ratio: 0.761246
[rank 3, worker 39] busy ratio: 0.758962
[rank 3, worker 40] busy ratio: 0.759644
[rank 3, worker 41] busy ratio: 0.765447
[rank 3, worker 42] busy ratio: 0.749505
[rank 3, worker 43] busy ratio: 0.756182
[rank 3, worker 44] busy ratio: 0.741720
[rank 3, worker 45] busy ratio: 0.753956
[rank 3, worker 46] busy ratio: 0.753956
[rank 3, worker 47] busy ratio: 0.765142
Pair    | 19.244     | 19.55      | 19.897     |   5.6 | 48.30
[rank 3, worker 48] busy ratio: 0.757973
[rank 3, worker 49] busy ratio: 0.747899
[rank 3, worker 50] busy ratio: 0.752967
[rank 3, worker 51] busy ratio: 0.751236
[rank 3, worker 52] busy ratio: 0.771019
[rank 3, worker 53] busy ratio: 0.756737
[rank 3, worker 54] busy ratio: 0.759209
[rank 3, worker 55] busy ratio: 0.762670
Neigh   | 3.8099     | 3.8234     | 3.8465     |   0.7 |  9.45
Comm    | 4.7123     | 8.7955     | 12.021     |  89.4 | 21.73
Output  | 0.0023362  | 0.05487    | 0.092945   |  14.0 |  0.14
Modify  | 1.1838     | 1.2454     | 1.3311     |   5.5 |  3.08
Other   |            | 7.007      |            |       | 17.31

Nlocal:    8e+06 ave 8.00017e+06 max 7.99976e+06 min
Histogram: 1 0 0 0 0 0 2 0 0 1
Nghost:    711029 ave 711274 max 710914 min
Histogram: 2 0 1 0 0 0 0 0 0 1
Neighs:    0 ave 0 max 0 min
Histogram: 4 0 0 0 0 0 0 0 0 0
FullNghs:  6.00869e+08 ave 6.00884e+08 max 6.0085e+08 min
Histogram: 1 0 0 0 0 1 1 0 0 1

Total # of neighbors = 2.40348e+09
Ave neighs/atom = 75.1087
Neighbor list builds = 5
Dangerous builds not checked
Total wall time: 0:00:54
