LAMMPS (7 Aug 2019)
KOKKOS mode is enabled (../kokkos.cpp:85)
  will use up to 0 GPU(s) per node
  using 56 OpenMP thread(s) per MPI task
Lattice spacing in x,y,z = 1.6796 1.6796 1.6796
Created orthogonal box = (0 0 0) to (268.735 268.735 268.735)
  1 by 2 by 2 MPI processor grid
Created 16384000 atoms
  create_atoms CPU = 6.5537 secs
Neighbor list info ...
  update every 20 steps, delay 0 steps, check no
  max neighbors/atom: 2000, page size: 100000
  master list distance cutoff = 2.8
  ghost atom cutoff = 2.8
  binsize = 1.4, bins = 192 192 192
  1 neighbor lists, perpetual/occasional/extra = 1 0 0
  (1) pair lj/cut/kk, perpetual
      attributes: full, newton off, kokkos_device
      pair build: full/bin/kk/device
      stencil: full/bin/3d
      bin: kk/device
Setting up Verlet run ...
  Unit style    : lj
  Current step  : 0
  Time step     : 0.005
Per MPI rank memory allocation (min/avg/max) = 8306 | 8306 | 8306 Mbytes
Step Temp E_pair E_mol TotEng Press 
       0         1.44   -6.7733681            0   -4.6133682   -5.0196693 
     100   0.75918554   -5.7610896            0   -4.6223114   0.19195085 
[rank 0, worker 0] busy ratio: 0.971906
[rank 0, worker 1] busy ratio: 0.727866
[rank 0, worker 2] busy ratio: 0.741450
[rank 0, worker 3] busy ratio: 0.751019
[rank 0, worker 4] busy ratio: 0.752140
[rank 0, worker 5] busy ratio: 0.760081
[rank 0, worker 6] busy ratio: 0.752241
[rank 0, worker 7] busy ratio: 0.759984
[rank 0, worker 8] busy ratio: 0.756008
[rank 0, worker 9] busy ratio: 0.759169
[rank 0, worker 10] busy ratio: 0.742566
[rank 0, worker 11] busy ratio: 0.756625
[rank 0, worker 12] busy ratio: 0.757539
[rank 0, worker 13] busy ratio: 0.752447
[rank 0, worker 14] busy ratio: 0.745314
[rank 0, worker 15] busy ratio: 0.746640
[rank 0, worker 16] busy ratio: 0.762525
[rank 0, worker 17] busy ratio: 0.747862
[rank 0, worker 18] busy ratio: 0.753157
[rank 0, worker 19] busy ratio: 0.751834
[rank 0, worker 20] busy ratio: 0.742974
[rank 0, worker 21] busy ratio: 0.755601
[rank 0, worker 22] busy ratio: 0.751733
[rank 1, worker 0] busy ratio: 0.961351
[rank 1, worker 1] busy ratio: 0.819812
[rank 1, worker 2] busy ratio: 0.819739
[rank 1, worker 3] busy ratio: 0.818033
[rank 1, worker 4] busy ratio: 0.781722
[rank 1, worker 5] busy ratio: 0.791769
[rank 1, worker 6] busy ratio: 0.785249
[rank 1, worker 7] busy ratio: 0.825591
[rank 1, worker 8] busy ratio: 0.825041
[rank 1, worker 9] busy ratio: 0.822258
[rank 1, worker 10] busy ratio: 0.786064
[rank 1, worker 11] busy ratio: 0.785889
[rank 1, worker 12] busy ratio: 0.796576
[rank 1, worker 13] busy ratio: 0.784026
[rank 1, worker 14] busy ratio: 0.827150
[rank 1, worker 15] busy ratio: 0.822666
[rank 1, worker 16] busy ratio: 0.822738
[rank 1, worker 17] busy ratio: 0.827221
[rank 1, worker 18] busy ratio: 0.788681
[rank 1, worker 19] busy ratio: 0.786792
[rank 1, worker 20] busy ratio: 0.780269
[rank 1, worker 21] busy ratio: 0.832450
[rank 1, worker 22] busy ratio: 0.832042
[rank 1, worker 23] busy ratio: 0.829666
[rank 1, worker 24] busy ratio: 0.792907
[rank 1, worker 25] busy ratio: 0.792176
[rank 1, worker 26] busy ratio: 0.782715
[rank 1, worker 27] busy ratio: 0.784434
[rank 1, worker 28] busy ratio: 0.651305
[rank 1, worker 29] busy ratio: 0.649266
[rank 1, worker 30] busy ratio: 0.673187
[rank 1, worker 31] busy ratio: 0.638810
[rank 1, worker 32] busy ratio: 0.640848
[rank 1, worker 33] busy ratio: 0.675224
[rank 1, worker 34] busy ratio: 0.651855
[rank 1, worker 35] busy ratio: 0.653627
[rank 1, worker 36] busy ratio: 0.658109
[rank 1, worker 37] busy ratio: 0.671283
[rank 1, worker 38] busy ratio: 0.648186
[rank 1, worker 39] busy ratio: 0.663814
[rank 1, worker 40] busy ratio: 0.646148
[rank 1, worker 41] busy ratio: 0.677800
[rank 1, worker 42] busy ratio: 0.634623
[rank 1, worker 43] busy ratio: 0.673046
[rank 1, worker 44] busy ratio: 0.647922
[rank 1, worker 45] busy ratio: 0.663407
[rank 1, worker 46] busy ratio: 0.667482
[rank 0, worker 23] busy ratio: 0.756922
[rank 0, worker 24] busy ratio: 0.746129
[rank 1, worker 47] busy ratio: 0.680669
[rank 1, worker 48] busy ratio: 0.679837
[rank 1, worker 49] busy ratio: 0.635808
[rank 1, worker 50] busy ratio: 0.652138
[rank 1, worker 51] busy ratio: 0.649409
[rank 1, worker 52] busy ratio: 0.660285
[rank 1, worker 53] busy ratio: 0.671557
[rank 1, worker 54] busy ratio: 0.638289
[rank 1, worker 55] busy ratio: 0.609617
[rank 0, worker 25] busy ratio: 0.757539
[rank 0, worker 26] busy ratio: 0.747047
[rank 0, worker 27] busy ratio: 0.737057
[rank 3, worker 0] busy ratio: 0.964519
[rank 3, worker 1] busy ratio: 0.810106
[rank 3, worker 2] busy ratio: 0.814815
[rank 3, worker 3] busy ratio: 0.813925
[rank 3, worker 4] busy ratio: 0.782396
[rank 3, worker 5] busy ratio: 0.771894
[rank 3, worker 6] busy ratio: 0.799185
[rank 3, worker 7] busy ratio: 0.813594
[rank 3, worker 8] busy ratio: 0.810183
[rank 3, worker 9] busy ratio: 0.818811
[rank 3, worker 10] busy ratio: 0.791853
[rank 3, worker 11] busy ratio: 0.784609
[rank 3, worker 12] busy ratio: 0.790224
[rank 3, worker 13] busy ratio: 0.784929
[rank 3, worker 14] busy ratio: 0.811482
[rank 3, worker 15] busy ratio: 0.816701
[rank 3, worker 16] busy ratio: 0.819218
[rank 3, worker 17] busy ratio: 0.823841
[rank 3, worker 18] busy ratio: 0.792023
[rank 3, worker 19] busy ratio: 0.799593
[rank 3, worker 20] busy ratio: 0.782077
[rank 3, worker 21] busy ratio: 0.820847
[rank 3, worker 22] busy ratio: 0.819292
[rank 3, worker 23] busy ratio: 0.824583
[rank 3, worker 24] busy ratio: 0.781352
[rank 3, worker 25] busy ratio: 0.786879
[rank 3, worker 26] busy ratio: 0.785831
[rank 3, worker 27] busy ratio: 0.787052
[rank 3, worker 28] busy ratio: 0.658109
[rank 3, worker 29] busy ratio: 0.653768
[rank 3, worker 30] busy ratio: 0.677262
[rank 3, worker 31] busy ratio: 0.646173
[rank 3, worker 32] busy ratio: 0.677656
[rank 3, worker 33] busy ratio: 0.663681
[rank 3, worker 34] busy ratio: 0.649837
[rank 3, worker 35] busy ratio: 0.654582
[rank 3, worker 36] busy ratio: 0.669923
[rank 3, worker 37] busy ratio: 0.671010
[rank 3, worker 38] busy ratio: 0.665039
[rank 3, worker 39] busy ratio: 0.676578
[rank 3, worker 40] busy ratio: 0.660155
[rank 3, worker 41] busy ratio: 0.662597
[rank 3, worker 42] busy ratio: 0.646173
[rank 3, worker 43] busy ratio: 0.666667
[rank 3, worker 44] busy ratio: 0.649837
[rank 0, worker 28] busy ratio: 0.733089
[rank 0, worker 29] busy ratio: 0.743276
[rank 0, worker 30] busy ratio: 0.744499
[rank 0, worker 31] busy ratio: 0.741239
[rank 0, worker 32] busy ratio: 0.744802
[rank 0, worker 33] busy ratio: 0.752241
[rank 0, worker 34] busy ratio: 0.741133
[rank 0, worker 35] busy ratio: 0.736542
[rank 0, worker 36] busy ratio: 0.759478
[rank 0, worker 37] busy ratio: 0.738086
[rank 0, worker 38] busy ratio: 0.747759
[rank 0, worker 39] busy ratio: 0.730832
[rank 0, worker 40] busy ratio: 0.750713
[rank 0, worker 41] busy ratio: 0.754486
[rank 0, worker 42] busy ratio: 0.741949
[rank 0, worker 43] busy ratio: 0.749694
[rank 0, worker 44] busy ratio: 0.727495
[rank 0, worker 45] busy ratio: 0.724419
[rank 0, worker 46] busy ratio: 0.728199
[rank 3, worker 45] busy ratio: 0.664495
[rank 3, worker 46] busy ratio: 0.676578
[rank 3, worker 47] busy ratio: 0.677524
[rank 3, worker 48] busy ratio: 0.675214
[rank 3, worker 49] busy ratio: 0.658120
[rank 3, worker 50] busy ratio: 0.679022
[rank 3, worker 51] busy ratio: 0.654723
[rank 3, worker 52] busy ratio: 0.665853
[rank 3, worker 53] busy ratio: 0.666667
[rank 3, worker 54] busy ratio: 0.662729
[rank 3, worker 55] busy ratio: 0.621181
[rank 0, worker 47] busy ratio: 0.747454
[rank 0, worker 48] busy ratio: 0.723196
[rank 0, worker 49] busy ratio: 0.759365
[rank 0, worker 50] busy ratio: 0.713004
[rank 0, worker 51] busy ratio: 0.729939
[rank 0, worker 52] busy ratio: 0.725866
[rank 0, worker 53] busy ratio: 0.723716
[rank 0, worker 54] busy ratio: 0.731866
[rank 0, worker 55] busy ratio: 0.739715
[rank 2, worker 0] busy ratio: 0.948206
[rank 2, worker 1] busy ratio: 0.880098
[rank 2, worker 2] busy ratio: 0.877343
[rank 2, worker 3] busy ratio: 0.888753
[rank 2, worker 4] busy ratio: 0.736412
[rank 2, worker 5] busy ratio: 0.762138
[rank 2, worker 6] busy ratio: 0.775377
[rank 2, worker 7] busy ratio: 0.879886
[rank 2, worker 8] busy ratio: 0.881418
[rank 2, worker 9] busy ratio: 0.889206
[rank 2, worker 10] busy ratio: 0.735749
[rank 2, worker 11] busy ratio: 0.743987
[rank 2, worker 12] busy ratio: 0.718941
[rank 2, worker 13] busy ratio: 0.737464
[rank 2, worker 14] busy ratio: 0.887169
[rank 2, worker 15] busy ratio: 0.885086
[rank 2, worker 16] busy ratio: 0.890383
[rank 2, worker 17] busy ratio: 0.884271
[rank 2, worker 18] busy ratio: 0.739609
[rank 2, worker 19] busy ratio: 0.728717
[rank 2, worker 20] busy ratio: 0.730346
[rank 2, worker 21] busy ratio: 0.889206
[rank 2, worker 22] busy ratio: 0.893236
[rank 2, worker 23] busy ratio: 0.887576
[rank 2, worker 24] busy ratio: 0.728496
[rank 2, worker 25] busy ratio: 0.753971
[rank 2, worker 26] busy ratio: 0.723014
[rank 2, worker 27] busy ratio: 0.721271
[rank 2, worker 28] busy ratio: 0.640994
[rank 2, worker 29] busy ratio: 0.638549
[rank 2, worker 30] busy ratio: 0.664629
[rank 2, worker 31] busy ratio: 0.643702
[rank 2, worker 32] busy ratio: 0.656212
[rank 2, worker 33] busy ratio: 0.660962
[rank 2, worker 34] busy ratio: 0.662454
[rank 2, worker 35] busy ratio: 0.634067
[rank 2, worker 36] busy ratio: 0.679430
[rank 2, worker 37] busy ratio: 0.646963
[rank 2, worker 38] busy ratio: 0.666667
[rank 2, worker 39] busy ratio: 0.640733
[rank 2, worker 40] busy ratio: 0.642624
[rank 2, worker 41] busy ratio: 0.661100
[rank 2, worker 42] busy ratio: 0.681874
[rank 2, worker 43] busy ratio: 0.664629
[rank 2, worker 44] busy ratio: 0.643585
[rank 2, worker 45] busy ratio: 0.640294
[rank 2, worker 46] busy ratio: 0.659878
[rank 2, worker 47] busy ratio: 0.666667
[rank 2, worker 48] busy ratio: 0.643032
[rank 2, worker 49] busy ratio: 0.661777
Loop time of 24.566 on 224 procs for 100 steps with 16384000 atoms

Performance: 1758.531 tau/day, 4.071 timesteps/s
4079.1% CPU use with 4 MPI tasks x 56 OpenMP threads

MPI task timing breakdown:
Section |  min time  |  avg time  |  max time  |%varavg| %total
---------------------------------------------------------------
[rank 2, worker 50] busy ratio: 0.636512
[rank 2, worker 51] busy ratio: 0.650916
[rank 2, worker 52] busy ratio: 0.643992
[rank 2, worker 53] busy ratio: 0.648616
[rank 2, worker 54] busy ratio: 0.667210
[rank 2, worker 55] busy ratio: 0.631622
Pair    | 10.711     | 11.435     | 12.767     |  23.3 | 46.55
Neigh   | 1.8474     | 1.914      | 2.03       |   5.0 |  7.79
Comm    | 1.828      | 5.8237     | 7.6095     |  97.0 | 23.71
Output  | 0.001307   | 0.022766   | 0.041474   |  11.2 |  0.09
Modify  | 0.5034     | 0.5822     | 0.66344    |   7.6 |  2.37
Other   |            | 4.788      |            |       | 19.49

Nlocal:    4.096e+06 ave 4.09657e+06 max 4.09544e+06 min
Histogram: 1 0 0 1 0 0 1 0 0 1
Nghost:    458178 ave 458566 max 457741 min
Histogram: 1 0 0 0 1 0 0 1 0 1
Neighs:    0 ave 0 max 0 min
Histogram: 4 0 0 0 0 0 0 0 0 0
FullNghs:  3.07645e+08 ave 3.07688e+08 max 3.07588e+08 min
Histogram: 1 0 0 0 1 0 0 0 1 1

Total # of neighbors = 1230581798
Ave neighs/atom = 75.1088
Neighbor list builds = 5
Dangerous builds not checked
Total wall time: 0:00:33
