LAMMPS (7 Aug 2019)
KOKKOS mode is enabled (../kokkos.cpp:85)
  will use up to 0 GPU(s) per node
  using 56 OpenMP thread(s) per MPI task
Lattice spacing in x,y,z = 1.6796 1.6796 1.6796
Created orthogonal box = (0 0 0) to (403.103 403.103 403.103)
  1 by 2 by 2 MPI processor grid
Created 55296000 atoms
  create_atoms CPU = 15.6073 secs
Neighbor list info ...
  update every 20 steps, delay 0 steps, check no
  max neighbors/atom: 2000, page size: 100000
  master list distance cutoff = 2.8
  ghost atom cutoff = 2.8
  binsize = 1.4, bins = 288 288 288
  1 neighbor lists, perpetual/occasional/extra = 1 0 0
  (1) pair lj/cut/kk, perpetual
      attributes: full, newton off, kokkos_device
      pair build: full/bin/kk/device
      stencil: full/bin/3d
      bin: kk/device
Setting up Verlet run ...
  Unit style    : lj
  Current step  : 0
  Time step     : 0.005
Per MPI rank memory allocation (min/avg/max) = 2.709e+04 | 2.709e+04 | 2.709e+04 Mbytes
Step Temp E_pair E_mol TotEng Press 
       0         1.44   -6.7733681            0   -4.6133681   -5.0196693 
     100   0.75942427   -5.7614518            0   -4.6223154   0.19008332 
[rank 0, worker 0] busy ratio: 0.972503
[rank 0, worker 1] busy ratio: 0.846683
[rank 0, worker 2] busy ratio: 0.844508
[rank 1, worker 0] busy ratio: 0.975172
[rank 1, worker 1] busy ratio: 0.850373
[rank 1, worker 2] busy ratio: 0.854469
[rank 1, worker 3] busy ratio: 0.849150
[rank 1, worker 4] busy ratio: 0.830340
[rank 1, worker 5] busy ratio: 0.832124
[rank 1, worker 6] busy ratio: 0.830946
[rank 1, worker 7] busy ratio: 0.847814
[rank 1, worker 8] busy ratio: 0.851986
[rank 3, worker 0] busy ratio: 0.973639
[rank 3, worker 1] busy ratio: 0.841170
[rank 3, worker 2] busy ratio: 0.838968
[rank 3, worker 3] busy ratio: 0.839320
[rank 3, worker 4] busy ratio: 0.838617
[rank 3, worker 5] busy ratio: 0.839381
[rank 3, worker 6] busy ratio: 0.837471
[rank 3, worker 7] busy ratio: 0.837693
[rank 0, worker 3] busy ratio: 0.852913
[rank 0, worker 4] busy ratio: 0.852015
[rank 0, worker 5] busy ratio: 0.845625
[rank 0, worker 6] busy ratio: 0.846257
[rank 0, worker 7] busy ratio: 0.848577
[rank 0, worker 8] busy ratio: 0.846036
[rank 3, worker 8] busy ratio: 0.845713
[rank 3, worker 9] busy ratio: 0.838426
[rank 3, worker 10] busy ratio: 0.842658
[rank 3, worker 11] busy ratio: 0.831010
[rank 3, worker 12] busy ratio: 0.835371
[rank 3, worker 13] busy ratio: 0.837152
[rank 3, worker 14] busy ratio: 0.839572
[rank 3, worker 15] busy ratio: 0.844156
[rank 3, worker 16] busy ratio: 0.837058
[rank 3, worker 17] busy ratio: 0.839190
[rank 3, worker 18] busy ratio: 0.841291
[rank 3, worker 19] busy ratio: 0.840367
[rank 3, worker 20] busy ratio: 0.840145
[rank 3, worker 21] busy ratio: 0.841894
[rank 3, worker 22] busy ratio: 0.836134
[rank 3, worker 23] busy ratio: 0.843613
[rank 3, worker 24] busy ratio: 0.836867
[rank 3, worker 25] busy ratio: 0.831774
[rank 3, worker 26] busy ratio: 0.835561
[rank 3, worker 27] busy ratio: 0.837662
[rank 3, worker 28] busy ratio: 0.797135
[rank 3, worker 29] busy ratio: 0.810697
[rank 3, worker 30] busy ratio: 0.825788
[rank 3, worker 31] busy ratio: 0.796944
[rank 3, worker 32] busy ratio: 0.817800
[rank 3, worker 33] busy ratio: 0.813216
[rank 0, worker 9] busy ratio: 0.849885
[rank 0, worker 10] busy ratio: 0.848902
[rank 0, worker 11] busy ratio: 0.839542
[rank 1, worker 9] busy ratio: 0.857716
[rank 1, worker 10] busy ratio: 0.827764
[rank 1, worker 11] busy ratio: 0.830978
[rank 1, worker 12] busy ratio: 0.826012
[rank 1, worker 13] busy ratio: 0.833047
[rank 1, worker 14] busy ratio: 0.855042
[rank 1, worker 15] busy ratio: 0.855452
[rank 1, worker 16] busy ratio: 0.855042
[rank 1, worker 17] busy ratio: 0.858316
[rank 1, worker 18] busy ratio: 0.834670
[rank 1, worker 19] busy ratio: 0.831201
[rank 1, worker 20] busy ratio: 0.822765
[rank 1, worker 21] busy ratio: 0.856406
[rank 1, worker 22] busy ratio: 0.853025
[rank 1, worker 23] busy ratio: 0.848902
[rank 1, worker 24] busy ratio: 0.829832
[rank 1, worker 25] busy ratio: 0.828528
[rank 1, worker 26] busy ratio: 0.830023
[rank 1, worker 27] busy ratio: 0.835530
[rank 1, worker 28] busy ratio: 0.809551
[rank 1, worker 29] busy ratio: 0.819450
[rank 1, worker 30] busy ratio: 0.815282
[rank 1, worker 31] busy ratio: 0.804086
[rank 1, worker 32] busy ratio: 0.813216
[rank 1, worker 33] busy ratio: 0.811115
[rank 1, worker 34] busy ratio: 0.820283
[rank 3, worker 34] busy ratio: 0.809169
[rank 3, worker 35] busy ratio: 0.810888
[rank 0, worker 12] busy ratio: 0.848797
[rank 0, worker 13] busy ratio: 0.849694
[rank 1, worker 35] busy ratio: 0.807678
[rank 1, worker 36] busy ratio: 0.816151
[rank 1, worker 37] busy ratio: 0.819866
[rank 3, worker 36] busy ratio: 0.815855
[rank 3, worker 37] busy ratio: 0.818529
[rank 0, worker 14] busy ratio: 0.850430
[rank 0, worker 15] busy ratio: 0.848549
[rank 0, worker 16] busy ratio: 0.858098
[rank 1, worker 38] busy ratio: 0.816498
[rank 1, worker 39] busy ratio: 0.816880
[rank 3, worker 38] busy ratio: 0.806224
[rank 3, worker 39] busy ratio: 0.807332
[rank 3, worker 40] busy ratio: 0.812070
[rank 0, worker 17] busy ratio: 0.849150
[rank 0, worker 18] busy ratio: 0.848711
[rank 2, worker 0] busy ratio: 0.961414
[rank 2, worker 1] busy ratio: 0.853621
[rank 2, worker 2] busy ratio: 0.857853
[rank 2, worker 3] busy ratio: 0.856761
[rank 2, worker 4] busy ratio: 0.838334
[rank 2, worker 5] busy ratio: 0.824226
[rank 2, worker 6] busy ratio: 0.835499
[rank 2, worker 7] busy ratio: 0.855178
[rank 2, worker 8] busy ratio: 0.860772
[rank 1, worker 40] busy ratio: 0.824069
[rank 1, worker 41] busy ratio: 0.821585
[rank 3, worker 41] busy ratio: 0.818407
[rank 3, worker 42] busy ratio: 0.806341
[rank 0, worker 19] busy ratio: 0.851060
[rank 0, worker 20] busy ratio: 0.845111
[rank 2, worker 9] busy ratio: 0.853104
[rank 2, worker 10] busy ratio: 0.837378
[rank 2, worker 11] busy ratio: 0.835148
[rank 2, worker 12] busy ratio: 0.830372
[rank 2, worker 13] busy ratio: 0.836898
[rank 2, worker 14] busy ratio: 0.857307
[rank 2, worker 15] busy ratio: 0.854987
[rank 2, worker 16] busy ratio: 0.855014
[rank 2, worker 17] busy ratio: 0.854278
[rank 2, worker 18] busy ratio: 0.838044
[rank 2, worker 19] busy ratio: 0.833238
[rank 2, worker 20] busy ratio: 0.826012
[rank 2, worker 21] busy ratio: 0.859435
[rank 2, worker 22] busy ratio: 0.857088
[rank 2, worker 23] busy ratio: 0.862655
[rank 2, worker 24] busy ratio: 0.830755
[rank 2, worker 25] busy ratio: 0.831710
[rank 2, worker 26] busy ratio: 0.831169
[rank 2, worker 27] busy ratio: 0.821394
[rank 2, worker 28] busy ratio: 0.804281
[rank 2, worker 29] busy ratio: 0.794612
[rank 2, worker 30] busy ratio: 0.812572
[rank 2, worker 31] busy ratio: 0.803974
[rank 2, worker 32] busy ratio: 0.804202
[rank 2, worker 33] busy ratio: 0.816167
[rank 2, worker 34] busy ratio: 0.822541
[rank 1, worker 42] busy ratio: 0.815699
[rank 1, worker 43] busy ratio: 0.811497
[rank 3, worker 43] busy ratio: 0.814362
[rank 3, worker 44] busy ratio: 0.815543
[rank 3, worker 45] busy ratio: 0.818529
[rank 3, worker 46] busy ratio: 0.813252
[rank 3, worker 47] busy ratio: 0.812416
[rank 0, worker 21] busy ratio: 0.848959
[rank 0, worker 22] busy ratio: 0.846066
[rank 0, worker 23] busy ratio: 0.848386
[rank 2, worker 35] busy ratio: 0.808023
[rank 2, worker 36] busy ratio: 0.798090
[rank 1, worker 44] busy ratio: 0.802177
[rank 1, worker 45] busy ratio: 0.817574
[rank 1, worker 46] busy ratio: 0.816081
[rank 1, worker 47] busy ratio: 0.817991
[rank 1, worker 48] busy ratio: 0.821968
[rank 3, worker 48] busy ratio: 0.816046
[rank 3, worker 49] busy ratio: 0.819137
[rank 3, worker 50] busy ratio: 0.821429
[rank 0, worker 24] busy ratio: 0.848959
[rank 0, worker 25] busy ratio: 0.854087
[rank 0, worker 26] busy ratio: 0.854115
[rank 2, worker 37] busy ratio: 0.814744
[rank 2, worker 38] busy ratio: 0.802483
[rank 1, worker 49] busy ratio: 0.810388
[rank 1, worker 50] busy ratio: 0.801566
[rank 3, worker 51] busy ratio: 0.822036
[rank 3, worker 52] busy ratio: 0.817644
[rank 0, worker 27] busy ratio: 0.852559
[rank 0, worker 28] busy ratio: 0.841039
[rank 2, worker 39] busy ratio: 0.800153
[rank 2, worker 40] busy ratio: 0.823147
[rank 1, worker 51] busy ratio: 0.816654
[rank 1, worker 52] busy ratio: 0.828146
[rank 3, worker 53] busy ratio: 0.810124
[rank 3, worker 54] busy ratio: 0.796639
[rank 0, worker 29] busy ratio: 0.845111
[rank 0, worker 30] busy ratio: 0.850105
[rank 2, worker 41] busy ratio: 0.815664
[rank 2, worker 42] busy ratio: 0.794882
[rank 2, worker 43] busy ratio: 0.800955
[rank 2, worker 44] busy ratio: 0.814207
[rank 2, worker 45] busy ratio: 0.789876
[rank 1, worker 53] busy ratio: 0.809360
[rank 1, worker 54] busy ratio: 0.801566
[rank 3, worker 55] busy ratio: 0.709998
[rank 0, worker 31] busy ratio: 0.850458
[rank 0, worker 32] busy ratio: 0.848549
[rank 0, worker 33] busy ratio: 0.837822
[rank 2, worker 46] busy ratio: 0.817956
[rank 2, worker 47] busy ratio: 0.804431
[rank 1, worker 55] busy ratio: 0.724771
[rank 0, worker 34] busy ratio: 0.850812
[rank 0, worker 35] busy ratio: 0.845493
[rank 2, worker 48] busy ratio: 0.801948
[rank 2, worker 49] busy ratio: 0.814136
[rank 0, worker 36] busy ratio: 0.846668
[rank 0, worker 37] busy ratio: 0.847182
[rank 0, worker 38] busy ratio: 0.842628
[rank 2, worker 50] busy ratio: 0.806723
[rank 2, worker 51] busy ratio: 0.816393
[rank 0, worker 39] busy ratio: 0.840306
[rank 0, worker 40] busy ratio: 0.851031
[rank 2, worker 52] busy ratio: 0.818946
[rank 2, worker 53] busy ratio: 0.820439
[rank 2, worker 54] busy ratio: 0.793736
[rank 0, worker 41] busy ratio: 0.844347
[rank 0, worker 42] busy ratio: 0.849150
[rank 0, worker 43] busy ratio: 0.841703
[rank 2, worker 55] busy ratio: 0.721713
[rank 0, worker 44] busy ratio: 0.845081
[rank 0, worker 45] busy ratio: 0.850649
[rank 0, worker 46] busy ratio: 0.850239
[rank 0, worker 47] busy ratio: 0.842819
[rank 0, worker 48] busy ratio: 0.849475
[rank 0, worker 49] busy ratio: 0.847594
[rank 0, worker 50] busy ratio: 0.851824
[rank 0, worker 51] busy ratio: 0.849475
[rank 0, worker 52] busy ratio: 0.852587
[rank 0, worker 53] busy ratio: 0.851003
[rank 0, worker 54] busy ratio: 0.836867
[rank 0, worker 55] busy ratio: 0.762896
Loop time of 52.38 on 224 procs for 100 steps with 55296000 atoms

Performance: 824.742 tau/day, 1.909 timesteps/s
4612.8% CPU use with 4 MPI tasks x 56 OpenMP threads

MPI task timing breakdown:
Section |  min time  |  avg time  |  max time  |%varavg| %total
---------------------------------------------------------------
Pair    | 30.029     | 30.37      | 30.733     |   4.6 | 57.98
Neigh   | 6.8537     | 6.9658     | 7.1142     |   4.0 | 13.30
Comm    | 5.4324     | 6.4864     | 7.3969     |  27.6 | 12.38
Output  | 0.0035724  | 0.051116   | 0.13468    |  23.8 |  0.10
Modify  | 1.7035     | 1.8959     | 2.2107     |  13.8 |  3.62
Other   |            | 6.611      |            |       | 12.62

Nlocal:    1.3824e+07 ave 1.38247e+07 max 1.38235e+07 min
Histogram: 1 1 0 0 0 0 1 0 0 1
Nghost:    1.01912e+06 ave 1.01965e+06 max 1.0184e+06 min
Histogram: 1 0 0 0 1 0 0 0 1 1
Neighs:    0 ave 0 max 0 min
Histogram: 4 0 0 0 0 0 0 0 0 0
FullNghs:  1.0383e+09 ave 1.03837e+09 max 1.03824e+09 min
Histogram: 1 0 1 0 0 1 0 0 0 1

Total # of neighbors = 4.1532e+09
Ave neighs/atom = 75.1085
Neighbor list builds = 5
Dangerous builds not checked
Total wall time: 0:01:16
