LAMMPS (7 Aug 2019)
KOKKOS mode is enabled (../kokkos.cpp:85)
  will use up to 0 GPU(s) per node
  using 56 OpenMP thread(s) per MPI task
Lattice spacing in x,y,z = 1.6796 1.6796 1.6796
Created orthogonal box = (0 0 0) to (201.552 201.552 201.552)
  1 by 2 by 2 MPI processor grid
Created 6912000 atoms
  create_atoms CPU = 3.37827 secs
Neighbor list info ...
  update every 20 steps, delay 0 steps, check no
  max neighbors/atom: 2000, page size: 100000
  master list distance cutoff = 2.8
  ghost atom cutoff = 2.8
  binsize = 1.4, bins = 144 144 144
  1 neighbor lists, perpetual/occasional/extra = 1 0 0
  (1) pair lj/cut/kk, perpetual
      attributes: full, newton off, kokkos_device
      pair build: full/bin/kk/device
      stencil: full/bin/3d
      bin: kk/device
Setting up Verlet run ...
  Unit style    : lj
  Current step  : 0
  Time step     : 0.005
Per MPI rank memory allocation (min/avg/max) = 3650 | 3650 | 3650 Mbytes
Step Temp E_pair E_mol TotEng Press 
       0         1.44   -6.7733681            0   -4.6133684   -5.0196694 
     100   0.75929363   -5.7612508            0   -4.6223105   0.19076255 
[rank 0, worker 0] busy ratio: 0.919586
[rank 0, worker 1] busy ratio: 0.750000
[rank 0, worker 2] busy ratio: 0.802862
[rank 0, worker 3] busy ratio: 0.794281
[rank 0, worker 4] busy ratio: 0.797458
[rank 3, worker 0] busy ratio: 0.942948
[rank 3, worker 1] busy ratio: 0.799523
[rank 3, worker 2] busy ratio: 0.793158
[rank 3, worker 3] busy ratio: 0.805401
[rank 3, worker 4] busy ratio: 0.770883
[rank 3, worker 5] busy ratio: 0.755361
[rank 3, worker 6] busy ratio: 0.764893
[rank 3, worker 7] busy ratio: 0.813842
[rank 3, worker 8] busy ratio: 0.808578
[rank 3, worker 9] busy ratio: 0.806041
[rank 3, worker 10] busy ratio: 0.755768
[rank 3, worker 11] busy ratio: 0.767091
[rank 3, worker 12] busy ratio: 0.755768
[rank 3, worker 13] busy ratio: 0.757937
[rank 3, worker 14] busy ratio: 0.813842
[rank 3, worker 15] busy ratio: 0.813196
[rank 3, worker 16] busy ratio: 0.811755
[rank 3, worker 17] busy ratio: 0.803657
[rank 3, worker 18] busy ratio: 0.769658
[rank 3, worker 19] busy ratio: 0.736884
[rank 3, worker 20] busy ratio: 0.767701
[rank 3, worker 21] busy ratio: 0.809865
[rank 3, worker 22] busy ratio: 0.803500
[rank 3, worker 23] busy ratio: 0.804452
[rank 3, worker 24] busy ratio: 0.748213
[rank 3, worker 25] busy ratio: 0.736299
[rank 3, worker 26] busy ratio: 0.762321
[rank 3, worker 27] busy ratio: 0.742653
[rank 3, worker 28] busy ratio: 0.748013
[rank 3, worker 29] busy ratio: 0.742448
[rank 3, worker 30] busy ratio: 0.734499
[rank 3, worker 31] busy ratio: 0.741270
[rank 3, worker 32] busy ratio: 0.733704
[rank 3, worker 33] busy ratio: 0.753981
[rank 3, worker 34] busy ratio: 0.742063
[rank 3, worker 35] busy ratio: 0.740476
[rank 3, worker 36] busy ratio: 0.735504
[rank 3, worker 37] busy ratio: 0.736884
[rank 3, worker 38] busy ratio: 0.736089
[rank 3, worker 39] busy ratio: 0.751192
[rank 3, worker 40] busy ratio: 0.737679
[rank 3, worker 41] busy ratio: 0.730159
[rank 3, worker 42] busy ratio: 0.741653
[rank 3, worker 43] busy ratio: 0.741653
[rank 3, worker 44] busy ratio: 0.733916
[rank 3, worker 45] busy ratio: 0.744833
[rank 0, worker 5] busy ratio: 0.790143
[rank 0, worker 6] busy ratio: 0.789515
[rank 0, worker 7] busy ratio: 0.788721
[rank 0, worker 8] busy ratio: 0.790310
[rank 0, worker 9] busy ratio: 0.796825
[rank 0, worker 10] busy ratio: 0.782712
[rank 0, worker 11] busy ratio: 0.783784
[rank 0, worker 12] busy ratio: 0.766905
[rank 0, worker 13] busy ratio: 0.780159
[rank 0, worker 14] busy ratio: 0.760731
[rank 0, worker 15] busy ratio: 0.769658
[rank 0, worker 16] busy ratio: 0.755167
[rank 0, worker 17] busy ratio: 0.768864
[rank 0, worker 18] busy ratio: 0.753175
[rank 2, worker 0] busy ratio: 0.948454
[rank 2, worker 1] busy ratio: 0.804936
[rank 2, worker 2] busy ratio: 0.794913
[rank 2, worker 3] busy ratio: 0.801272
[rank 2, worker 4] busy ratio: 0.764331
[rank 2, worker 5] busy ratio: 0.769292
[rank 2, worker 6] busy ratio: 0.773270
[rank 2, worker 7] busy ratio: 0.804607
[rank 2, worker 8] busy ratio: 0.800318
[rank 2, worker 9] busy ratio: 0.809865
[rank 2, worker 10] busy ratio: 0.777247
[rank 2, worker 11] busy ratio: 0.760731
[rank 2, worker 12] busy ratio: 0.757166
[rank 2, worker 13] busy ratio: 0.763911
[rank 2, worker 14] busy ratio: 0.810016
[rank 2, worker 15] busy ratio: 0.798727
[rank 0, worker 19] busy ratio: 0.793651
[rank 0, worker 20] busy ratio: 0.745036
[rank 3, worker 46] busy ratio: 0.745628
[rank 3, worker 47] busy ratio: 0.740064
[rank 3, worker 48] busy ratio: 0.744444
[rank 3, worker 49] busy ratio: 0.729150
[rank 3, worker 50] busy ratio: 0.731533
[rank 3, worker 51] busy ratio: 0.725973
[rank 3, worker 52] busy ratio: 0.737679
[rank 3, worker 53] busy ratio: 0.721781
[rank 3, worker 54] busy ratio: 0.724960
[rank 3, worker 55] busy ratio: 0.715990
[rank 0, worker 21] busy ratio: 0.762321
[rank 0, worker 22] busy ratio: 0.746233
[rank 0, worker 23] busy ratio: 0.750596
[rank 0, worker 24] busy ratio: 0.749801
[rank 0, worker 25] busy ratio: 0.750000
[rank 0, worker 26] busy ratio: 0.744241
[rank 0, worker 27] busy ratio: 0.741475
[rank 0, worker 28] busy ratio: 0.790310
[rank 2, worker 16] busy ratio: 0.807631
[rank 2, worker 17] busy ratio: 0.809865
[rank 2, worker 18] busy ratio: 0.755361
[rank 2, worker 19] busy ratio: 0.766720
[rank 2, worker 20] busy ratio: 0.762739
[rank 2, worker 21] busy ratio: 0.802381
[rank 2, worker 22] busy ratio: 0.806683
[rank 2, worker 23] busy ratio: 0.803500
[rank 2, worker 24] busy ratio: 0.751790
[rank 2, worker 25] busy ratio: 0.752782
[rank 2, worker 26] busy ratio: 0.756972
[rank 2, worker 27] busy ratio: 0.753577
[rank 2, worker 28] busy ratio: 0.743835
[rank 2, worker 29] busy ratio: 0.742038
[rank 2, worker 30] busy ratio: 0.739476
[rank 2, worker 31] busy ratio: 0.741448
[rank 2, worker 32] busy ratio: 0.749403
[rank 2, worker 33] busy ratio: 0.743447
[rank 2, worker 34] busy ratio: 0.753577
[rank 2, worker 35] busy ratio: 0.737679
[rank 2, worker 36] busy ratio: 0.743447
[rank 2, worker 37] busy ratio: 0.743243
[rank 2, worker 38] busy ratio: 0.747419
[rank 2, worker 39] busy ratio: 0.748608
[rank 2, worker 40] busy ratio: 0.742857
[rank 0, worker 29] busy ratio: 0.767276
[rank 0, worker 30] busy ratio: 0.780952
[rank 2, worker 41] busy ratio: 0.743447
[rank 2, worker 42] busy ratio: 0.735084
[rank 2, worker 43] busy ratio: 0.752586
[rank 2, worker 44] busy ratio: 0.739476
[rank 0, worker 31] busy ratio: 0.775040
[rank 0, worker 32] busy ratio: 0.776807
[rank 0, worker 33] busy ratio: 0.773376
[rank 2, worker 45] busy ratio: 0.736255
[rank 2, worker 46] busy ratio: 0.740064
[rank 2, worker 47] busy ratio: 0.740064
[rank 0, worker 34] busy ratio: 0.764286
[rank 0, worker 35] busy ratio: 0.759905
[rank 0, worker 36] busy ratio: 0.780159
[rank 0, worker 37] busy ratio: 0.782194
[rank 0, worker 38] busy ratio: 0.769048
[rank 0, worker 39] busy ratio: 0.765079
[rank 0, worker 40] busy ratio: 0.760317
[rank 0, worker 41] busy ratio: 0.760127
[rank 0, worker 42] busy ratio: 0.764286
[rank 0, worker 43] busy ratio: 0.780952
[rank 0, worker 44] busy ratio: 0.758539
[rank 0, worker 45] busy ratio: 0.750596
[rank 0, worker 46] busy ratio: 0.758921
[rank 0, worker 47] busy ratio: 0.764659
[rank 0, worker 48] busy ratio: 0.763680
[rank 0, worker 49] busy ratio: 0.782712
[rank 0, worker 50] busy ratio: 0.737510
[rank 0, worker 51] busy ratio: 0.765266
[rank 0, worker 52] busy ratio: 0.758921
[rank 0, worker 53] busy ratio: 0.744647
[rank 0, worker 54] busy ratio: 0.751587
[rank 0, worker 55] busy ratio: 0.763680
[rank 2, worker 48] busy ratio: 0.740064
[rank 2, worker 49] busy ratio: 0.748013
[rank 2, worker 50] busy ratio: 0.727924
[rank 2, worker 51] busy ratio: 0.750397
[rank 2, worker 52] busy ratio: 0.730739
[rank 2, worker 53] busy ratio: 0.724384
[rank 2, worker 54] busy ratio: 0.733122
[rank 2, worker 55] busy ratio: 0.726333
[rank 1, worker 0] busy ratio: 0.946868
[rank 1, worker 1] busy ratio: 0.802067
[rank 1, worker 2] busy ratio: 0.802224
[rank 1, worker 3] busy ratio: 0.810811
[rank 1, worker 4] busy ratio: 0.768496
[rank 1, worker 5] busy ratio: 0.747419
[rank 1, worker 6] busy ratio: 0.780255
[rank 1, worker 7] busy ratio: 0.796502
[rank 1, worker 8] busy ratio: 0.807296
[rank 1, worker 9] busy ratio: 0.802705
[rank 1, worker 10] busy ratio: 0.766905
[rank 1, worker 11] busy ratio: 0.759936
[rank 1, worker 12] busy ratio: 0.765079
[rank 1, worker 13] busy ratio: 0.769658
[rank 1, worker 14] busy ratio: 0.802224
[rank 1, worker 15] busy ratio: 0.809524
[rank 1, worker 16] busy ratio: 0.805887
[rank 1, worker 17] busy ratio: 0.798887
[rank 1, worker 18] busy ratio: 0.783956
[rank 1, worker 19] busy ratio: 0.772836
[rank 1, worker 20] busy ratio: 0.781225
[rank 1, worker 21] busy ratio: 0.806041
[rank 1, worker 22] busy ratio: 0.806195
[rank 1, worker 23] busy ratio: 0.798253
[rank 1, worker 24] busy ratio: 0.779809
[rank 1, worker 25] busy ratio: 0.776984
[rank 1, worker 26] busy ratio: 0.779014
[rank 1, worker 27] busy ratio: 0.756757
[rank 1, worker 28] busy ratio: 0.741653
[rank 1, worker 29] busy ratio: 0.737679
[rank 1, worker 30] busy ratio: 0.737470
[rank 1, worker 31] busy ratio: 0.732909
[rank 1, worker 32] busy ratio: 0.749603
[rank 1, worker 33] busy ratio: 0.750397
[rank 1, worker 34] busy ratio: 0.754567
[rank 1, worker 35] busy ratio: 0.740859
[rank 1, worker 36] busy ratio: 0.744833
[rank 1, worker 37] busy ratio: 0.739269
[rank 1, worker 38] busy ratio: 0.746624
[rank 1, worker 39] busy ratio: 0.751192
[rank 1, worker 40] busy ratio: 0.755962
[rank 1, worker 41] busy ratio: 0.753577
[rank 1, worker 42] busy ratio: 0.739476
[rank 1, worker 43] busy ratio: 0.747419
[rank 1, worker 44] busy ratio: 0.737887
[rank 1, worker 45] busy ratio: 0.744038
[rank 1, worker 46] busy ratio: 0.753968
[rank 1, worker 47] busy ratio: 0.753577
[rank 1, worker 48] busy ratio: 0.754372
[rank 1, worker 49] busy ratio: 0.744630
Loop time of 12.616 on 224 procs for 100 steps with 6912000 atoms

Performance: 3424.218 tau/day, 7.926 timesteps/s
4231.8% CPU use with 4 MPI tasks x 56 OpenMP threads

MPI task timing breakdown:
Section |  min time  |  avg time  |  max time  |%varavg| %total
---------------------------------------------------------------
Pair    | 5.3539     | 5.5801     | 5.8791     |   9.5 | 44.23
[rank 1, worker 50] busy ratio: 0.737679
[rank 1, worker 51] busy ratio: 0.746825
[rank 1, worker 52] busy ratio: 0.758950
[rank 1, worker 53] busy ratio: 0.753577
[rank 1, worker 54] busy ratio: 0.743243
[rank 1, worker 55] busy ratio: 0.726767
Neigh   | 0.76138    | 0.7726     | 0.78205    |   0.9 |  6.12
Comm    | 1.5858     | 3.09       | 3.7688     |  49.9 | 24.49
Output  | 0.0006325  | 0.01294    | 0.033374   |  10.8 |  0.10
Modify  | 0.28679    | 0.29853    | 0.32283    |   2.6 |  2.37
Other   |            | 2.862      |            |       | 22.68

Nlocal:    1.728e+06 ave 1.72823e+06 max 1.72772e+06 min
Histogram: 1 0 0 0 0 1 1 0 0 1
Nghost:    260645 ave 260881 max 260518 min
Histogram: 1 1 1 0 0 0 0 0 0 1
Neighs:    0 ave 0 max 0 min
Histogram: 4 0 0 0 0 0 0 0 0 0
FullNghs:  1.2979e+08 ave 1.29814e+08 max 1.29771e+08 min
Histogram: 1 0 1 0 0 1 0 0 0 1

Total # of neighbors = 519161500
Ave neighs/atom = 75.1102
Neighbor list builds = 5
Dangerous builds not checked
Total wall time: 0:00:17
