LAMMPS (7 Aug 2019)
KOKKOS mode is enabled (../kokkos.cpp:85)
  will use up to 0 GPU(s) per node
  using 56 OpenMP thread(s) per MPI task
Lattice spacing in x,y,z = 1.6796 1.6796 1.6796
Created orthogonal box = (0 0 0) to (67.1838 67.1838 67.1838)
  1 by 2 by 2 MPI processor grid
Created 256000 atoms
  create_atoms CPU = 0.27834 secs
Neighbor list info ...
  update every 20 steps, delay 0 steps, check no
  max neighbors/atom: 2000, page size: 100000
  master list distance cutoff = 2.8
  ghost atom cutoff = 2.8
  binsize = 1.4, bins = 48 48 48
  1 neighbor lists, perpetual/occasional/extra = 1 0 0
  (1) pair lj/cut/kk, perpetual
      attributes: full, newton off, kokkos_device
      pair build: full/bin/kk/device
      stencil: full/bin/3d
      bin: kk/device
Setting up Verlet run ...
  Unit style    : lj
  Current step  : 0
  Time step     : 0.005
Per MPI rank memory allocation (min/avg/max) = 196.2 | 196.2 | 196.2 Mbytes
Step Temp E_pair E_mol TotEng Press 
       0         1.44   -6.7733681            0   -4.6133765    -5.019674 
     100   0.75865617   -5.7603259            0   -4.6223461   0.19586104 
[rank 0, worker 0] busy ratio: 0.889447
[rank 0, worker 1] busy ratio: 0.849246
[rank 0, worker 2] busy ratio: 0.857868
[rank 0, worker 3] busy ratio: 0.852041
[rank 0, worker 4] busy ratio: 0.852041
[rank 0, worker 5] busy ratio: 0.848485
[rank 0, worker 6] busy ratio: 0.853535
[rank 0, worker 7] busy ratio: 0.852792
[rank 0, worker 8] busy ratio: 0.848485
[rank 0, worker 9] busy ratio: 0.852792
[rank 0, worker 10] busy ratio: 0.852792
[rank 0, worker 11] busy ratio: 0.853535
[rank 0, worker 12] busy ratio: 0.853535
[rank 1, worker 0] busy ratio: 0.913706
[rank 1, worker 1] busy ratio: 0.838384
[rank 1, worker 2] busy ratio: 0.839196
[rank 1, worker 3] busy ratio: 0.844221
[rank 1, worker 4] busy ratio: 0.834171
[rank 1, worker 5] busy ratio: 0.832487
[rank 1, worker 6] busy ratio: 0.832487
[rank 1, worker 7] busy ratio: 0.843434
[rank 1, worker 8] busy ratio: 0.842640
[rank 0, worker 13] busy ratio: 0.852792
[rank 0, worker 14] busy ratio: 0.847716
[rank 0, worker 15] busy ratio: 0.846939
[rank 3, worker 0] busy ratio: 0.944162
[rank 3, worker 1] busy ratio: 0.827411
[rank 3, worker 2] busy ratio: 0.834171
[rank 3, worker 3] busy ratio: 0.833333
[rank 3, worker 4] busy ratio: 0.822335
[rank 3, worker 5] busy ratio: 0.817259
[rank 3, worker 6] busy ratio: 0.813131
[rank 3, worker 7] busy ratio: 0.833333
[rank 0, worker 16] busy ratio: 0.842640
[rank 0, worker 17] busy ratio: 0.847716
[rank 0, worker 18] busy ratio: 0.847716
[rank 2, worker 0] busy ratio: 0.954082
[rank 2, worker 1] busy ratio: 0.801020
[rank 2, worker 2] busy ratio: 0.808081
[rank 2, worker 3] busy ratio: 0.803030
[rank 2, worker 4] busy ratio: 0.796954
[rank 2, worker 5] busy ratio: 0.794872
[rank 2, worker 6] busy ratio: 0.790816
[rank 2, worker 7] busy ratio: 0.802030
[rank 2, worker 8] busy ratio: 0.803030
[rank 1, worker 9] busy ratio: 0.838384
[rank 1, worker 10] busy ratio: 0.827411
[rank 1, worker 11] busy ratio: 0.832487
[rank 1, worker 12] busy ratio: 0.828283
[rank 1, worker 13] busy ratio: 0.832487
[rank 1, worker 14] busy ratio: 0.837563
[rank 1, worker 15] busy ratio: 0.838384
[rank 1, worker 16] busy ratio: 0.829146
[rank 1, worker 17] busy ratio: 0.836735
[rank 1, worker 18] busy ratio: 0.828283
[rank 1, worker 19] busy ratio: 0.824121
[rank 1, worker 20] busy ratio: 0.823232
[rank 1, worker 21] busy ratio: 0.834171
[rank 1, worker 22] busy ratio: 0.838384
[rank 1, worker 23] busy ratio: 0.835000
[rank 0, worker 19] busy ratio: 0.842640
[rank 0, worker 20] busy ratio: 0.846939
[rank 3, worker 8] busy ratio: 0.819095
[rank 3, worker 9] busy ratio: 0.819095
[rank 3, worker 10] busy ratio: 0.813131
[rank 3, worker 11] busy ratio: 0.817259
[rank 3, worker 12] busy ratio: 0.818182
[rank 3, worker 13] busy ratio: 0.814070
[rank 3, worker 14] busy ratio: 0.823232
[rank 3, worker 15] busy ratio: 0.822335
[rank 3, worker 16] busy ratio: 0.819095
[rank 3, worker 17] busy ratio: 0.817259
[rank 3, worker 18] busy ratio: 0.808081
[rank 3, worker 19] busy ratio: 0.809045
[rank 3, worker 20] busy ratio: 0.812183
[rank 3, worker 21] busy ratio: 0.813131
[rank 1, worker 24] busy ratio: 0.829146
[rank 1, worker 25] busy ratio: 0.825000
[rank 0, worker 21] busy ratio: 0.848485
[rank 0, worker 22] busy ratio: 0.848485
[rank 3, worker 22] busy ratio: 0.823232
[rank 3, worker 23] busy ratio: 0.812183
[rank 3, worker 24] busy ratio: 0.813131
[rank 1, worker 26] busy ratio: 0.828283
[rank 1, worker 27] busy ratio: 0.823232
[rank 0, worker 23] busy ratio: 0.843434
[rank 0, worker 24] busy ratio: 0.847716
[rank 0, worker 25] busy ratio: 0.847716
[rank 3, worker 25] busy ratio: 0.813131
[rank 3, worker 26] busy ratio: 0.813131
[rank 1, worker 28] busy ratio: 0.828283
[rank 1, worker 29] busy ratio: 0.823232
[rank 0, worker 26] busy ratio: 0.848485
[rank 0, worker 27] busy ratio: 0.843434
[rank 3, worker 27] busy ratio: 0.812183
[rank 3, worker 28] busy ratio: 0.816327
[rank 2, worker 9] busy ratio: 0.808081
[rank 2, worker 10] busy ratio: 0.787879
[rank 2, worker 11] busy ratio: 0.791878
[rank 2, worker 12] busy ratio: 0.792929
[rank 2, worker 13] busy ratio: 0.787879
[rank 2, worker 14] busy ratio: 0.804020
[rank 2, worker 15] busy ratio: 0.802030
[rank 2, worker 16] busy ratio: 0.796954
[rank 2, worker 17] busy ratio: 0.796954
[rank 2, worker 18] busy ratio: 0.785714
[rank 2, worker 19] busy ratio: 0.786802
[rank 2, worker 20] busy ratio: 0.791878
[rank 2, worker 21] busy ratio: 0.802030
[rank 2, worker 22] busy ratio: 0.796954
[rank 2, worker 23] busy ratio: 0.790816
[rank 1, worker 30] busy ratio: 0.823232
[rank 1, worker 31] busy ratio: 0.823232
[rank 0, worker 28] busy ratio: 0.862944
[rank 0, worker 29] busy ratio: 0.852792
[rank 0, worker 30] busy ratio: 0.852792
[rank 3, worker 29] busy ratio: 0.812183
[rank 3, worker 30] busy ratio: 0.813131
[rank 2, worker 24] busy ratio: 0.787879
[rank 2, worker 25] busy ratio: 0.787879
[rank 1, worker 32] busy ratio: 0.829146
[rank 1, worker 33] busy ratio: 0.822335
[rank 0, worker 31] busy ratio: 0.852041
[rank 0, worker 32] busy ratio: 0.848485
[rank 3, worker 31] busy ratio: 0.812183
[rank 3, worker 32] busy ratio: 0.808081
[rank 2, worker 26] busy ratio: 0.786802
[rank 2, worker 27] busy ratio: 0.787879
[rank 1, worker 34] busy ratio: 0.824121
[rank 1, worker 35] busy ratio: 0.822335
[rank 1, worker 36] busy ratio: 0.823232
[rank 1, worker 37] busy ratio: 0.828283
[rank 0, worker 33] busy ratio: 0.849246
[rank 0, worker 34] busy ratio: 0.847716
[rank 3, worker 33] busy ratio: 0.811224
[rank 3, worker 34] busy ratio: 0.812183
[rank 3, worker 35] busy ratio: 0.809045
[rank 3, worker 36] busy ratio: 0.812183
[rank 2, worker 28] busy ratio: 0.787879
[rank 2, worker 29] busy ratio: 0.786802
[rank 1, worker 38] busy ratio: 0.822335
[rank 1, worker 39] busy ratio: 0.827411
[rank 1, worker 40] busy ratio: 0.822335
[rank 0, worker 35] busy ratio: 0.852041
[rank 0, worker 36] busy ratio: 0.847716
[rank 0, worker 37] busy ratio: 0.847716
[rank 3, worker 37] busy ratio: 0.811224
[rank 3, worker 38] busy ratio: 0.808081
[rank 3, worker 39] busy ratio: 0.813131
[rank 2, worker 30] busy ratio: 0.782828
[rank 2, worker 31] busy ratio: 0.781726
[rank 1, worker 41] busy ratio: 0.823232
[rank 1, worker 42] busy ratio: 0.824121
[rank 0, worker 38] busy ratio: 0.853535
[rank 0, worker 39] busy ratio: 0.847716
[rank 3, worker 40] busy ratio: 0.812183
[rank 3, worker 41] busy ratio: 0.809045
[rank 2, worker 32] busy ratio: 0.785714
[rank 2, worker 33] busy ratio: 0.786802
[rank 1, worker 43] busy ratio: 0.828283
[rank 1, worker 44] busy ratio: 0.822335
[rank 0, worker 40] busy ratio: 0.848485
[rank 0, worker 41] busy ratio: 0.848485
[rank 3, worker 42] busy ratio: 0.811224
[rank 3, worker 43] busy ratio: 0.807107
[rank 2, worker 34] busy ratio: 0.787879
[rank 2, worker 35] busy ratio: 0.777778
[rank 2, worker 36] busy ratio: 0.787879
[rank 2, worker 37] busy ratio: 0.788945
[rank 1, worker 45] busy ratio: 0.824121
[rank 1, worker 46] busy ratio: 0.827411
[rank 0, worker 42] busy ratio: 0.848485
[rank 0, worker 43] busy ratio: 0.853535
[rank 0, worker 44] busy ratio: 0.848485
[rank 3, worker 44] busy ratio: 0.813131
[rank 3, worker 45] busy ratio: 0.808081
[rank 2, worker 38] busy ratio: 0.791878
[rank 2, worker 39] busy ratio: 0.782828
[rank 2, worker 40] busy ratio: 0.786802
[rank 1, worker 47] busy ratio: 0.827411
[rank 1, worker 48] busy ratio: 0.827411
[rank 0, worker 45] busy ratio: 0.852792
[rank 0, worker 46] busy ratio: 0.853535
[rank 3, worker 46] busy ratio: 0.803030
[rank 3, worker 47] busy ratio: 0.813131
[rank 2, worker 41] busy ratio: 0.786802
[rank 2, worker 42] busy ratio: 0.787879
[rank 1, worker 49] busy ratio: 0.823232
[rank 1, worker 50] busy ratio: 0.828283
[rank 0, worker 47] busy ratio: 0.847716
[rank 0, worker 48] busy ratio: 0.849246
[rank 3, worker 48] busy ratio: 0.814070
[rank 3, worker 49] busy ratio: 0.807107
[rank 2, worker 43] busy ratio: 0.786802
[rank 2, worker 44] busy ratio: 0.782828
[rank 1, worker 51] busy ratio: 0.823232
[rank 1, worker 52] busy ratio: 0.823232
[rank 1, worker 53] busy ratio: 0.827411
[rank 1, worker 54] busy ratio: 0.822335
[rank 1, worker 55] busy ratio: 0.827411
[rank 0, worker 49] busy ratio: 0.852792
[rank 0, worker 50] busy ratio: 0.852041
[rank 0, worker 51] busy ratio: 0.852792
[rank 3, worker 50] busy ratio: 0.809045
[rank 3, worker 51] busy ratio: 0.812183
[rank 2, worker 45] busy ratio: 0.782828
[rank 2, worker 46] busy ratio: 0.786802
[rank 0, worker 52] busy ratio: 0.847716
[rank 0, worker 53] busy ratio: 0.848485
[rank 3, worker 52] busy ratio: 0.808081
[rank 3, worker 53] busy ratio: 0.812183
[rank 2, worker 47] busy ratio: 0.783920
[rank 2, worker 48] busy ratio: 0.786802
[rank 0, worker 54] busy ratio: 0.857143
[rank 0, worker 55] busy ratio: 0.849246
[rank 3, worker 54] busy ratio: 0.809045
[rank 3, worker 55] busy ratio: 0.813131
[rank 2, worker 49] busy ratio: 0.792929
[rank 2, worker 50] busy ratio: 0.782828
Loop time of 1.98248 on 224 procs for 100 steps with 256000 atoms

[rank 2, worker 51] busy ratio: 0.785000
[rank 2, worker 52] busy ratio: 0.787879
Performance: 21790.877 tau/day, 50.442 timesteps/s
[rank 2, worker 53] busy ratio: 0.783920
[rank 2, worker 54] busy ratio: 0.787879
[rank 2, worker 55] busy ratio: 0.786802
4517.3% CPU use with 4 MPI tasks x 56 OpenMP threads

MPI task timing breakdown:
Section |  min time  |  avg time  |  max time  |%varavg| %total
---------------------------------------------------------------
Pair    | 0.12874    | 0.13279    | 0.13734    |   0.8 |  6.70
Neigh   | 0.035427   | 0.040324   | 0.045745   |   1.8 |  2.03
Comm    | 1.0842     | 1.2283     | 1.3738     |   9.8 | 61.96
Output  | 8.6404e-05 | 0.00071772 | 0.0012937  |   0.0 |  0.04
Modify  | 0.0062991  | 0.0077522  | 0.011328   |   2.4 |  0.39
Other   |            | 0.5726     |            |       | 28.88

Nlocal:    64000 ave 64093 max 63904 min
Histogram: 1 0 0 0 1 1 0 0 0 1
Nghost:    31651.5 ave 31741 max 31553 min
Histogram: 1 0 0 0 0 2 0 0 0 1
Neighs:    0 ave 0 max 0 min
Histogram: 4 0 0 0 0 0 0 0 0 0
FullNghs:  4.80697e+06 ave 4.81695e+06 max 4.79721e+06 min
Histogram: 1 0 0 0 2 0 0 0 0 1

Total # of neighbors = 19227874
Ave neighs/atom = 75.1089
Neighbor list builds = 5
Dangerous builds not checked
Total wall time: 0:00:02
