LAMMPS (7 Aug 2019)
KOKKOS mode is enabled (../kokkos.cpp:85)
  will use up to 0 GPU(s) per node
  using 56 OpenMP thread(s) per MPI task
Lattice spacing in x,y,z = 1.6796 1.6796 1.6796
Created orthogonal box = (0 0 0) to (403.103 403.103 403.103)
  1 by 2 by 2 MPI processor grid
Created 55296000 atoms
  create_atoms CPU = 16.0939 secs
Neighbor list info ...
  update every 20 steps, delay 0 steps, check no
  max neighbors/atom: 2000, page size: 100000
  master list distance cutoff = 2.8
  ghost atom cutoff = 2.8
  binsize = 1.4, bins = 288 288 288
  1 neighbor lists, perpetual/occasional/extra = 1 0 0
  (1) pair lj/cut/kk, perpetual
      attributes: full, newton off, kokkos_device
      pair build: full/bin/kk/device
      stencil: full/bin/3d
      bin: kk/device
Setting up Verlet run ...
  Unit style    : lj
  Current step  : 0
  Time step     : 0.005
Per MPI rank memory allocation (min/avg/max) = 2.709e+04 | 2.709e+04 | 2.709e+04 Mbytes
Step Temp E_pair E_mol TotEng Press 
       0         1.44   -6.7733681            0   -4.6133681   -5.0196693 
     100   0.75942427   -5.7614518            0   -4.6223154   0.19008332 
[rank 1, worker 0] busy ratio: 0.978283
[rank 1, worker 1] busy ratio: 0.800201
[rank 1, worker 2] busy ratio: 0.806215
[rank 1, worker 3] busy ratio: 0.808084
[rank 1, worker 4] busy ratio: 0.734247
[rank 1, worker 5] busy ratio: 0.732710
[rank 1, worker 6] busy ratio: 0.723810
[rank 1, worker 7] busy ratio: 0.815099
[rank 3, worker 0] busy ratio: 0.995490
[rank 3, worker 1] busy ratio: 0.790204
[rank 3, worker 2] busy ratio: 0.799065
[rank 3, worker 3] busy ratio: 0.796893
[rank 3, worker 4] busy ratio: 0.751755
[rank 3, worker 5] busy ratio: 0.745865
[rank 3, worker 6] busy ratio: 0.744069
[rank 3, worker 7] busy ratio: 0.799566
[rank 0, worker 0] busy ratio: 0.988972
[rank 0, worker 1] busy ratio: 0.841832
[rank 0, worker 2] busy ratio: 0.847452
[rank 0, worker 3] busy ratio: 0.849482
[rank 3, worker 8] busy ratio: 0.805880
[rank 3, worker 9] busy ratio: 0.807949
[rank 3, worker 10] busy ratio: 0.746241
[rank 3, worker 11] busy ratio: 0.748580
[rank 3, worker 12] busy ratio: 0.747453
[rank 3, worker 13] busy ratio: 0.744613
[rank 3, worker 14] busy ratio: 0.789843
[rank 3, worker 15] busy ratio: 0.783328
[rank 1, worker 8] busy ratio: 0.818243
[rank 1, worker 9] busy ratio: 0.821977
[rank 1, worker 10] busy ratio: 0.730583
[rank 1, worker 11] busy ratio: 0.728321
[rank 1, worker 12] busy ratio: 0.728624
[rank 1, worker 13] busy ratio: 0.730750
[rank 1, worker 14] busy ratio: 0.826094
[rank 1, worker 15] busy ratio: 0.825179
[rank 1, worker 16] busy ratio: 0.807448
[rank 1, worker 17] busy ratio: 0.823284
[rank 1, worker 18] busy ratio: 0.727197
[rank 1, worker 19] busy ratio: 0.730705
[rank 1, worker 20] busy ratio: 0.729247
[rank 1, worker 21] busy ratio: 0.824286
[rank 1, worker 22] busy ratio: 0.820337
[rank 1, worker 23] busy ratio: 0.820808
[rank 1, worker 24] busy ratio: 0.730795
[rank 1, worker 25] busy ratio: 0.727743
[rank 1, worker 26] busy ratio: 0.729034
[rank 1, worker 27] busy ratio: 0.731463
[rank 1, worker 28] busy ratio: 0.667280
[rank 1, worker 29] busy ratio: 0.653467
[rank 3, worker 16] busy ratio: 0.806581
[rank 3, worker 17] busy ratio: 0.807416
[rank 3, worker 18] busy ratio: 0.749332
[rank 1, worker 30] busy ratio: 0.647786
[rank 1, worker 31] busy ratio: 0.647344
[rank 3, worker 19] busy ratio: 0.749582
[rank 3, worker 20] busy ratio: 0.749457
[rank 1, worker 32] busy ratio: 0.643943
[rank 1, worker 33] busy ratio: 0.648238
[rank 1, worker 34] busy ratio: 0.648897
[rank 0, worker 4] busy ratio: 0.751882
[rank 0, worker 5] busy ratio: 0.734748
[rank 0, worker 6] busy ratio: 0.715313
[rank 0, worker 7] busy ratio: 0.855353
[rank 0, worker 8] busy ratio: 0.858527
[rank 0, worker 9] busy ratio: 0.859506
[rank 0, worker 10] busy ratio: 0.720134
[rank 0, worker 11] busy ratio: 0.704713
[rank 0, worker 12] busy ratio: 0.707150
[rank 3, worker 21] busy ratio: 0.808418
[rank 3, worker 22] busy ratio: 0.796460
[rank 1, worker 35] busy ratio: 0.642272
[rank 1, worker 36] busy ratio: 0.645948
[rank 2, worker 0] busy ratio: 0.992820
[rank 2, worker 1] busy ratio: 0.801705
[rank 2, worker 2] busy ratio: 0.803542
[rank 2, worker 3] busy ratio: 0.808553
[rank 2, worker 4] busy ratio: 0.743105
[rank 2, worker 5] busy ratio: 0.734626
[rank 2, worker 6] busy ratio: 0.742399
[rank 2, worker 7] busy ratio: 0.805746
[rank 2, worker 8] busy ratio: 0.808251
[rank 0, worker 13] busy ratio: 0.715622
[rank 0, worker 14] busy ratio: 0.867067
[rank 0, worker 15] busy ratio: 0.870240
[rank 3, worker 23] busy ratio: 0.810621
[rank 3, worker 24] busy ratio: 0.748288
[rank 1, worker 37] busy ratio: 0.652959
[rank 1, worker 38] busy ratio: 0.648120
[rank 2, worker 9] busy ratio: 0.802739
[rank 2, worker 10] busy ratio: 0.733044
[rank 2, worker 11] busy ratio: 0.736095
[rank 2, worker 12] busy ratio: 0.739392
[rank 2, worker 13] busy ratio: 0.735260
[rank 2, worker 14] busy ratio: 0.818668
[rank 2, worker 15] busy ratio: 0.817301
[rank 2, worker 16] busy ratio: 0.813961
[rank 2, worker 17] busy ratio: 0.820945
[rank 2, worker 18] busy ratio: 0.739225
[rank 2, worker 19] busy ratio: 0.741984
[rank 2, worker 20] busy ratio: 0.731373
[rank 2, worker 21] busy ratio: 0.822920
[rank 2, worker 22] busy ratio: 0.824649
[rank 2, worker 23] busy ratio: 0.829464
[rank 2, worker 24] busy ratio: 0.733879
[rank 2, worker 25] busy ratio: 0.735638
[rank 2, worker 26] busy ratio: 0.732208
[rank 2, worker 27] busy ratio: 0.745573
[rank 2, worker 28] busy ratio: 0.679819
[rank 2, worker 29] busy ratio: 0.650677
[rank 2, worker 30] busy ratio: 0.654193
[rank 0, worker 16] busy ratio: 0.871701
[rank 0, worker 17] busy ratio: 0.870052
[rank 3, worker 25] busy ratio: 0.746909
[rank 3, worker 26] busy ratio: 0.750960
[rank 1, worker 39] busy ratio: 0.639826
[rank 1, worker 40] busy ratio: 0.650852
[rank 2, worker 31] busy ratio: 0.651077
[rank 2, worker 32] busy ratio: 0.652130
[rank 2, worker 33] busy ratio: 0.663102
[rank 0, worker 18] busy ratio: 0.704644
[rank 0, worker 19] busy ratio: 0.701854
[rank 3, worker 27] busy ratio: 0.744489
[rank 3, worker 28] busy ratio: 0.725526
[rank 3, worker 29] busy ratio: 0.711947
[rank 1, worker 41] busy ratio: 0.639766
[rank 1, worker 42] busy ratio: 0.647845
[rank 1, worker 43] busy ratio: 0.639385
[rank 1, worker 44] busy ratio: 0.637153
[rank 1, worker 45] busy ratio: 0.646066
[rank 2, worker 34] busy ratio: 0.664774
[rank 2, worker 35] busy ratio: 0.651186
[rank 0, worker 20] busy ratio: 0.701086
[rank 0, worker 21] busy ratio: 0.828796
[rank 3, worker 30] busy ratio: 0.709990
[rank 3, worker 31] busy ratio: 0.718009
[rank 1, worker 46] busy ratio: 0.645614
[rank 1, worker 47] busy ratio: 0.652690
[rank 2, worker 36] busy ratio: 0.652414
[rank 2, worker 37] busy ratio: 0.656537
[rank 0, worker 22] busy ratio: 0.866021
[rank 0, worker 23] busy ratio: 0.871242
[rank 3, worker 32] busy ratio: 0.713880
[rank 3, worker 33] busy ratio: 0.706148
[rank 1, worker 48] busy ratio: 0.646007
[rank 1, worker 49] busy ratio: 0.659038
[rank 2, worker 38] busy ratio: 0.653191
[rank 2, worker 39] busy ratio: 0.641223
[rank 0, worker 24] busy ratio: 0.700468
[rank 0, worker 25] busy ratio: 0.702423
[rank 3, worker 34] busy ratio: 0.709704
[rank 3, worker 35] busy ratio: 0.714930
[rank 1, worker 50] busy ratio: 0.647904
[rank 1, worker 51] busy ratio: 0.641724
[rank 2, worker 40] busy ratio: 0.668059
[rank 2, worker 41] busy ratio: 0.642105
[rank 0, worker 26] busy ratio: 0.702522
[rank 0, worker 27] busy ratio: 0.708271
[rank 3, worker 36] busy ratio: 0.717722
[rank 3, worker 37] busy ratio: 0.712663
[rank 3, worker 38] busy ratio: 0.707199
[rank 1, worker 52] busy ratio: 0.659205
[rank 1, worker 53] busy ratio: 0.640996
[rank 0, worker 28] busy ratio: 0.687396
[rank 0, worker 29] busy ratio: 0.645948
[rank 0, worker 30] busy ratio: 0.646056
[rank 0, worker 31] busy ratio: 0.654861
[rank 3, worker 39] busy ratio: 0.707484
[rank 3, worker 40] busy ratio: 0.705195
[rank 1, worker 54] busy ratio: 0.668170
[rank 1, worker 55] busy ratio: 0.499498
[rank 0, worker 32] busy ratio: 0.640494
[rank 0, worker 33] busy ratio: 0.650627
[rank 0, worker 34] busy ratio: 0.667112
[rank 3, worker 41] busy ratio: 0.704861
[rank 3, worker 42] busy ratio: 0.715742
[rank 0, worker 35] busy ratio: 0.652581
[rank 0, worker 36] busy ratio: 0.636045
[rank 3, worker 43] busy ratio: 0.706649
[rank 3, worker 44] busy ratio: 0.710540
[rank 0, worker 37] busy ratio: 0.643943
[rank 0, worker 38] busy ratio: 0.649958
[rank 3, worker 45] busy ratio: 0.714023
[rank 3, worker 46] busy ratio: 0.706079
[rank 3, worker 47] busy ratio: 0.712043
[rank 0, worker 39] busy ratio: 0.640494
[rank 0, worker 40] busy ratio: 0.657644
[rank 3, worker 48] busy ratio: 0.707484
[rank 3, worker 49] busy ratio: 0.714381
[rank 0, worker 41] busy ratio: 0.651745
[rank 0, worker 42] busy ratio: 0.636318
[rank 3, worker 50] busy ratio: 0.710658
[rank 3, worker 51] busy ratio: 0.711709
[rank 3, worker 52] busy ratio: 0.707533
[rank 0, worker 43] busy ratio: 0.638931
[rank 0, worker 44] busy ratio: 0.634269
[rank 3, worker 53] busy ratio: 0.703858
[rank 3, worker 54] busy ratio: 0.710707
[rank 3, worker 55] busy ratio: 0.542413
[rank 0, worker 45] busy ratio: 0.649348
[rank 0, worker 46] busy ratio: 0.638277
[rank 0, worker 47] busy ratio: 0.630199
[rank 0, worker 48] busy ratio: 0.635316
[rank 0, worker 49] busy ratio: 0.638277
[rank 0, worker 50] busy ratio: 0.632749
[rank 0, worker 51] busy ratio: 0.642559
[rank 0, worker 52] busy ratio: 0.664273
[rank 0, worker 53] busy ratio: 0.637548
[rank 0, worker 54] busy ratio: 0.661042
[rank 0, worker 55] busy ratio: 0.515481
Loop time of 59.8931 on 224 procs for 100 steps with 55296000 atoms

Performance: 721.285 tau/day, 1.670 timesteps/s
3993.8% CPU use with 4 MPI tasks x 56 OpenMP threads

MPI task timing breakdown:
Section |  min time  |  avg time  |  max time  |%varavg| %total
---------------------------------------------------------------
Pair    | 39.975     | 42.038     | 44.142     |  22.7 | 70.19
Neigh   | 6.6027     | 6.9196     | 7.5127     |  13.3 | 11.55
Comm    | 4.9503     | 6.8362     | 7.6873     |  42.1 | 11.41
Output  | 0.0036491  | 0.18544    | 0.25564    |  24.5 |  0.31
Modify  | 1.5907     | 1.8489     | 2.1825     |  17.1 |  3.09
Other   |            | 2.065      |            |       |  3.45

Nlocal:    1.3824e+07 ave 1.38247e+07 max 1.38235e+07 min
Histogram: 1 1 0 0 0 0 1 0 0 1
Nghost:    1.01912e+06 ave 1.01965e+06 max 1.0184e+06 min
Histogram: 1 0 0 0 1 0 0 0 1 1
Neighs:    0 ave 0 max 0 min
Histogram: 4 0 0 0 0 0 0 0 0 0
[rank 2, worker 42] busy ratio: 0.656250
[rank 2, worker 43] busy ratio: 0.640615
[rank 2, worker 44] busy ratio: 0.637594
[rank 2, worker 45] busy ratio: 0.657090
[rank 2, worker 46] busy ratio: 0.650075
[rank 2, worker 47] busy ratio: 0.637320
[rank 2, worker 48] busy ratio: 0.636591
[rank 2, worker 49] busy ratio: 0.647737
[rank 2, worker 50] busy ratio: 0.646519
[rank 2, worker 51] busy ratio: 0.651353
[rank 2, worker 52] busy ratio: 0.659038
[rank 2, worker 53] busy ratio: 0.634542
[rank 2, worker 54] busy ratio: 0.658427
[rank 2, worker 55] busy ratio: 0.503598
FullNghs:  1.0383e+09 ave 1.03837e+09 max 1.03824e+09 min
Histogram: 1 0 1 0 0 1 0 0 0 1

Total # of neighbors = 4.1532e+09
Ave neighs/atom = 75.1085
Neighbor list builds = 5
Dangerous builds not checked
Total wall time: 0:01:23
