LAMMPS (7 Aug 2019)
KOKKOS mode is enabled (../kokkos.cpp:85)
  will use up to 0 GPU(s) per node
  using 56 OpenMP thread(s) per MPI task
Lattice spacing in x,y,z = 1.6796 1.6796 1.6796
Created orthogonal box = (0 0 0) to (67.1838 67.1838 67.1838)
  1 by 2 by 2 MPI processor grid
Created 256000 atoms
  create_atoms CPU = 0.266717 secs
Neighbor list info ...
  update every 20 steps, delay 0 steps, check no
  max neighbors/atom: 2000, page size: 100000
  master list distance cutoff = 2.8
  ghost atom cutoff = 2.8
  binsize = 1.4, bins = 48 48 48
  1 neighbor lists, perpetual/occasional/extra = 1 0 0
  (1) pair lj/cut/kk, perpetual
      attributes: full, newton off, kokkos_device
      pair build: full/bin/kk/device
      stencil: full/bin/3d
      bin: kk/device
Setting up Verlet run ...
  Unit style    : lj
  Current step  : 0
  Time step     : 0.005
Per MPI rank memory allocation (min/avg/max) = 196.2 | 196.2 | 196.2 Mbytes
Step Temp E_pair E_mol TotEng Press 
       0         1.44   -6.7733681            0   -4.6133765    -5.019674 
     100   0.75865617   -5.7603259            0   -4.6223461   0.19586104 
[rank 0, worker 0] busy ratio: 0.941176
[rank 0, worker 1] busy ratio: 0.882353
[rank 0, worker 2] busy ratio: 0.882353
[rank 3, worker 0] busy ratio: 0.959302
[rank 3, worker 1] busy ratio: 0.858824
[rank 3, worker 2] busy ratio: 0.859649
[rank 3, worker 3] busy ratio: 0.865497
[rank 3, worker 4] busy ratio: 0.866279
[rank 3, worker 5] busy ratio: 0.847953
[rank 3, worker 6] busy ratio: 0.847059
[rank 3, worker 7] busy ratio: 0.865497
[rank 3, worker 8] busy ratio: 0.865497
[rank 3, worker 9] busy ratio: 0.860465
[rank 3, worker 10] busy ratio: 0.847953
[rank 3, worker 11] busy ratio: 0.847953
[rank 3, worker 12] busy ratio: 0.847953
[rank 3, worker 13] busy ratio: 0.847953
[rank 3, worker 14] busy ratio: 0.869822
[rank 3, worker 15] busy ratio: 0.853801
[rank 3, worker 16] busy ratio: 0.860465
[rank 3, worker 17] busy ratio: 0.858824
[rank 3, worker 18] busy ratio: 0.843023
[rank 1, worker 0] busy ratio: 0.964706
[rank 1, worker 1] busy ratio: 0.823529
[rank 1, worker 2] busy ratio: 0.834320
[rank 1, worker 3] busy ratio: 0.811765
[rank 1, worker 4] busy ratio: 0.824561
[rank 1, worker 5] busy ratio: 0.807018
[rank 1, worker 6] busy ratio: 0.807018
[rank 1, worker 7] busy ratio: 0.824561
[rank 3, worker 19] busy ratio: 0.842105
[rank 3, worker 20] busy ratio: 0.847059
[rank 3, worker 21] busy ratio: 0.859649
[rank 3, worker 22] busy ratio: 0.854651
[rank 3, worker 23] busy ratio: 0.854651
[rank 0, worker 3] busy ratio: 0.883041
[rank 0, worker 4] busy ratio: 0.864706
[rank 0, worker 5] busy ratio: 0.858824
[rank 0, worker 6] busy ratio: 0.857988
[rank 0, worker 7] busy ratio: 0.877193
[rank 0, worker 8] busy ratio: 0.883041
[rank 0, worker 9] busy ratio: 0.882353
[rank 0, worker 10] busy ratio: 0.858824
[rank 0, worker 11] busy ratio: 0.859649
[rank 3, worker 24] busy ratio: 0.847059
[rank 3, worker 25] busy ratio: 0.847953
[rank 3, worker 26] busy ratio: 0.848837
[rank 0, worker 12] busy ratio: 0.853801
[rank 0, worker 13] busy ratio: 0.859649
[rank 0, worker 14] busy ratio: 0.864706
[rank 0, worker 15] busy ratio: 0.883041
[rank 3, worker 27] busy ratio: 0.842105
[rank 3, worker 28] busy ratio: 0.847953
[rank 0, worker 16] busy ratio: 0.871345
[rank 0, worker 17] busy ratio: 0.871345
[rank 0, worker 18] busy ratio: 0.857988
[rank 3, worker 29] busy ratio: 0.841176
[rank 3, worker 30] busy ratio: 0.847059
[rank 3, worker 31] busy ratio: 0.842105
[rank 0, worker 19] busy ratio: 0.853801
[rank 0, worker 20] busy ratio: 0.853801
[rank 0, worker 21] busy ratio: 0.877193
[rank 0, worker 22] busy ratio: 0.876471
[rank 3, worker 32] busy ratio: 0.847059
[rank 3, worker 33] busy ratio: 0.842105
[rank 0, worker 23] busy ratio: 0.858824
[rank 0, worker 24] busy ratio: 0.863905
[rank 0, worker 25] busy ratio: 0.853801
[rank 3, worker 34] busy ratio: 0.847953
[rank 3, worker 35] busy ratio: 0.842105
[rank 0, worker 26] busy ratio: 0.854651
[rank 0, worker 27] busy ratio: 0.853801
[rank 0, worker 28] busy ratio: 0.859649
[rank 3, worker 36] busy ratio: 0.847059
[rank 3, worker 37] busy ratio: 0.842105
[rank 3, worker 38] busy ratio: 0.847059
[rank 0, worker 29] busy ratio: 0.857988
[rank 0, worker 30] busy ratio: 0.857988
[rank 0, worker 31] busy ratio: 0.858824
[rank 0, worker 32] busy ratio: 0.859649
[rank 3, worker 39] busy ratio: 0.847953
[rank 3, worker 40] busy ratio: 0.847059
[rank 2, worker 0] busy ratio: 0.925714
[rank 2, worker 1] busy ratio: 0.899408
[rank 2, worker 2] busy ratio: 0.900000
[rank 2, worker 3] busy ratio: 0.911765
[rank 2, worker 4] busy ratio: 0.894118
[rank 2, worker 5] busy ratio: 0.884393
[rank 2, worker 6] busy ratio: 0.888889
[rank 2, worker 7] busy ratio: 0.905882
[rank 1, worker 8] busy ratio: 0.818713
[rank 1, worker 9] busy ratio: 0.830409
[rank 1, worker 10] busy ratio: 0.812865
[rank 1, worker 11] busy ratio: 0.812865
[rank 1, worker 12] busy ratio: 0.812865
[rank 1, worker 13] busy ratio: 0.807018
[rank 1, worker 14] busy ratio: 0.829412
[rank 1, worker 15] busy ratio: 0.823529
[rank 1, worker 16] busy ratio: 0.818713
[rank 1, worker 17] busy ratio: 0.818713
[rank 1, worker 18] busy ratio: 0.807018
[rank 1, worker 19] busy ratio: 0.811765
[rank 1, worker 20] busy ratio: 0.807018
[rank 1, worker 21] busy ratio: 0.818713
[rank 0, worker 33] busy ratio: 0.863905
[rank 0, worker 34] busy ratio: 0.859649
[rank 0, worker 35] busy ratio: 0.858824
[rank 3, worker 41] busy ratio: 0.847059
[rank 3, worker 42] busy ratio: 0.847953
[rank 2, worker 8] busy ratio: 0.895349
[rank 2, worker 9] busy ratio: 0.900585
[rank 2, worker 10] busy ratio: 0.888889
[rank 2, worker 11] busy ratio: 0.894737
[rank 2, worker 12] busy ratio: 0.889535
[rank 2, worker 13] busy ratio: 0.888235
[rank 2, worker 14] busy ratio: 0.900585
[rank 2, worker 15] busy ratio: 0.901163
[rank 2, worker 16] busy ratio: 0.901163
[rank 2, worker 17] busy ratio: 0.900585
[rank 2, worker 18] busy ratio: 0.888889
[rank 2, worker 19] busy ratio: 0.888889
[rank 2, worker 20] busy ratio: 0.876471
[rank 2, worker 21] busy ratio: 0.900000
[rank 2, worker 22] busy ratio: 0.894737
[rank 1, worker 22] busy ratio: 0.823529
[rank 1, worker 23] busy ratio: 0.823529
[rank 0, worker 36] busy ratio: 0.864706
[rank 0, worker 37] busy ratio: 0.858824
[rank 0, worker 38] busy ratio: 0.858824
[rank 0, worker 39] busy ratio: 0.858824
[rank 0, worker 40] busy ratio: 0.857988
[rank 0, worker 41] busy ratio: 0.859649
[rank 3, worker 43] busy ratio: 0.842105
[rank 3, worker 44] busy ratio: 0.841176
[rank 2, worker 23] busy ratio: 0.895349
[rank 2, worker 24] busy ratio: 0.888889
[rank 2, worker 25] busy ratio: 0.888889
[rank 1, worker 24] busy ratio: 0.805882
[rank 1, worker 25] busy ratio: 0.801170
[rank 0, worker 42] busy ratio: 0.858824
[rank 0, worker 43] busy ratio: 0.859649
[rank 0, worker 44] busy ratio: 0.864706
[rank 0, worker 45] busy ratio: 0.871345
[rank 0, worker 46] busy ratio: 0.853801
[rank 0, worker 47] busy ratio: 0.857988
[rank 0, worker 48] busy ratio: 0.858824
[rank 3, worker 45] busy ratio: 0.847953
[rank 3, worker 46] busy ratio: 0.843023
[rank 3, worker 47] busy ratio: 0.847953
[rank 2, worker 26] busy ratio: 0.894737
[rank 2, worker 27] busy ratio: 0.888889
[rank 1, worker 26] busy ratio: 0.808140
[rank 1, worker 27] busy ratio: 0.805882
[rank 0, worker 49] busy ratio: 0.857988
[rank 0, worker 50] busy ratio: 0.863905
[rank 0, worker 51] busy ratio: 0.858824
[rank 0, worker 52] busy ratio: 0.863905
[rank 3, worker 48] busy ratio: 0.843023
[rank 3, worker 49] busy ratio: 0.842105
[rank 2, worker 28] busy ratio: 0.888889
[rank 2, worker 29] busy ratio: 0.883721
[rank 1, worker 28] busy ratio: 0.807018
[rank 1, worker 29] busy ratio: 0.811765
[rank 0, worker 53] busy ratio: 0.858824
[rank 0, worker 54] busy ratio: 0.858824
[rank 0, worker 55] busy ratio: 0.858824
[rank 3, worker 50] busy ratio: 0.842105
[rank 3, worker 51] busy ratio: 0.847059
[rank 2, worker 30] busy ratio: 0.888235
[rank 2, worker 31] busy ratio: 0.883721
[rank 1, worker 30] busy ratio: 0.811765
[rank 1, worker 31] busy ratio: 0.805882
Loop time of 1.7144 on 224 procs for 100 steps with 256000 atoms

[rank 3, worker 52] busy ratio: 0.847953
[rank 3, worker 53] busy ratio: 0.847953
[rank 3, worker 54] busy ratio: 0.847059
[rank 2, worker 32] busy ratio: 0.888889
[rank 2, worker 33] busy ratio: 0.888889
[rank 1, worker 32] busy ratio: 0.808140
[rank 1, worker 33] busy ratio: 0.808140
[rank 1, worker 34] busy ratio: 0.812865
[rank 1, worker 35] busy ratio: 0.811765
[rank 3, worker 55] busy ratio: 0.842105
[rank 2, worker 34] busy ratio: 0.888889
[rank 2, worker 35] busy ratio: 0.883721
[rank 2, worker 36] busy ratio: 0.889535
[rank 2, worker 37] busy ratio: 0.883041
[rank 2, worker 38] busy ratio: 0.883721
[rank 2, worker 39] busy ratio: 0.888889
[rank 1, worker 36] busy ratio: 0.805882
[rank 1, worker 37] busy ratio: 0.811765
[rank 1, worker 38] busy ratio: 0.807018
[rank 2, worker 40] busy ratio: 0.888889
[rank 2, worker 41] busy ratio: 0.888235
[rank 1, worker 39] busy ratio: 0.805882
[rank 1, worker 40] busy ratio: 0.801170
[rank 1, worker 41] busy ratio: 0.807018
[rank 1, worker 42] busy ratio: 0.807018
[rank 1, worker 43] busy ratio: 0.811765
[rank 1, worker 44] busy ratio: 0.805882
[rank 1, worker 45] busy ratio: 0.812865
[rank 1, worker 46] busy ratio: 0.807018
Performance: 25198.324 tau/day, 58.329 timesteps/s
4668.9% CPU use with 4 MPI tasks x 56 OpenMP threads

MPI task timing breakdown:
Section |  min time  |  avg time  |  max time  |%varavg| %total
---------------------------------------------------------------
[rank 2, worker 42] busy ratio: 0.888889
[rank 2, worker 43] busy ratio: 0.888889
[rank 1, worker 47] busy ratio: 0.808140
[rank 1, worker 48] busy ratio: 0.807018
[rank 1, worker 49] busy ratio: 0.807018
[rank 1, worker 50] busy ratio: 0.805882
[rank 1, worker 51] busy ratio: 0.807018
[rank 1, worker 52] busy ratio: 0.807018
Pair    | 0.1344     | 0.13644    | 0.13901    |   0.5 |  7.96
[rank 2, worker 44] busy ratio: 0.883041
[rank 2, worker 45] busy ratio: 0.883041
[rank 1, worker 53] busy ratio: 0.808140
[rank 1, worker 54] busy ratio: 0.807018
[rank 2, worker 46] busy ratio: 0.883721
[rank 2, worker 47] busy ratio: 0.888889
[rank 1, worker 55] busy ratio: 0.811765
[rank 2, worker 48] busy ratio: 0.887574
[rank 2, worker 49] busy ratio: 0.889535
Neigh   | 0.031218   | 0.040933   | 0.053191   |   3.9 |  2.39
[rank 2, worker 50] busy ratio: 0.888889
[rank 2, worker 51] busy ratio: 0.884393
Comm    | 1.0226     | 1.1071     | 1.1999     |   6.2 | 64.58
[rank 2, worker 52] busy ratio: 0.888889
[rank 2, worker 53] busy ratio: 0.883041
[rank 2, worker 54] busy ratio: 0.889535
[rank 2, worker 55] busy ratio: 0.884393
Output  | 8.1945e-05 | 0.0012326  | 0.0022962  |   2.8 |  0.07
Modify  | 0.006348   | 0.02242    | 0.059722   |  14.6 |  1.31
Other   |            | 0.4062     |            |       | 23.70

Nlocal:    64000 ave 64093 max 63904 min
Histogram: 1 0 0 0 1 1 0 0 0 1
Nghost:    31651.5 ave 31741 max 31553 min
Histogram: 1 0 0 0 0 2 0 0 0 1
Neighs:    0 ave 0 max 0 min
Histogram: 4 0 0 0 0 0 0 0 0 0
FullNghs:  4.80697e+06 ave 4.81695e+06 max 4.79721e+06 min
Histogram: 1 0 0 0 2 0 0 0 0 1

Total # of neighbors = 19227874
Ave neighs/atom = 75.1089
Neighbor list builds = 5
Dangerous builds not checked
Total wall time: 0:00:02
