LAMMPS (7 Aug 2019)
KOKKOS mode is enabled (../kokkos.cpp:85)
  will use up to 0 GPU(s) per node
  using 56 OpenMP thread(s) per MPI task
Lattice spacing in x,y,z = 1.6796 1.6796 1.6796
Created orthogonal box = (0 0 0) to (201.552 201.552 201.552)
  1 by 2 by 2 MPI processor grid
Created 6912000 atoms
  create_atoms CPU = 3.30634 secs
Neighbor list info ...
  update every 20 steps, delay 0 steps, check no
  max neighbors/atom: 2000, page size: 100000
  master list distance cutoff = 2.8
  ghost atom cutoff = 2.8
  binsize = 1.4, bins = 144 144 144
  1 neighbor lists, perpetual/occasional/extra = 1 0 0
  (1) pair lj/cut/kk, perpetual
      attributes: full, newton off, kokkos_device
      pair build: full/bin/kk/device
      stencil: full/bin/3d
      bin: kk/device
Setting up Verlet run ...
  Unit style    : lj
  Current step  : 0
  Time step     : 0.005
Per MPI rank memory allocation (min/avg/max) = 3650 | 3650 | 3650 Mbytes
Step Temp E_pair E_mol TotEng Press 
       0         1.44   -6.7733681            0   -4.6133684   -5.0196694 
     100   0.75929363   -5.7612508            0   -4.6223105   0.19076255 
[rank 0, worker 0] busy ratio: 0.951220
[rank 0, worker 1] busy ratio: 0.836120
[rank 0, worker 2] busy ratio: 0.859844
[rank 1, worker 0] busy ratio: 0.949944
[rank 1, worker 1] busy ratio: 0.880133
[rank 1, worker 2] busy ratio: 0.881111
[rank 1, worker 3] busy ratio: 0.882353
[rank 1, worker 4] busy ratio: 0.850945
[rank 1, worker 5] busy ratio: 0.848721
[rank 1, worker 6] busy ratio: 0.855716
[rank 1, worker 7] busy ratio: 0.878049
[rank 1, worker 8] busy ratio: 0.880133
[rank 1, worker 9] busy ratio: 0.876529
[rank 3, worker 0] busy ratio: 0.955457
[rank 3, worker 1] busy ratio: 0.875556
[rank 3, worker 2] busy ratio: 0.873333
[rank 3, worker 3] busy ratio: 0.886667
[rank 3, worker 4] busy ratio: 0.849833
[rank 3, worker 5] busy ratio: 0.831299
[rank 3, worker 6] busy ratio: 0.845727
[rank 3, worker 7] busy ratio: 0.872364
[rank 3, worker 8] busy ratio: 0.878889
[rank 3, worker 9] busy ratio: 0.879023
[rank 3, worker 10] busy ratio: 0.854283
[rank 3, worker 11] busy ratio: 0.850166
[rank 3, worker 12] busy ratio: 0.840000
[rank 3, worker 13] busy ratio: 0.851276
[rank 3, worker 14] busy ratio: 0.882353
[rank 3, worker 15] busy ratio: 0.887902
[rank 3, worker 16] busy ratio: 0.884573
[rank 3, worker 17] busy ratio: 0.874305
[rank 3, worker 18] busy ratio: 0.838710
[rank 3, worker 19] busy ratio: 0.856826
[rank 3, worker 20] busy ratio: 0.854606
[rank 0, worker 3] busy ratio: 0.852058
[rank 0, worker 4] busy ratio: 0.844444
[rank 0, worker 5] busy ratio: 0.847778
[rank 0, worker 6] busy ratio: 0.846496
[rank 0, worker 7] busy ratio: 0.862222
[rank 1, worker 10] busy ratio: 0.850000
[rank 1, worker 11] busy ratio: 0.852386
[rank 1, worker 12] busy ratio: 0.843159
[rank 1, worker 13] busy ratio: 0.841111
[rank 1, worker 14] busy ratio: 0.874165
[rank 1, worker 15] busy ratio: 0.875556
[rank 1, worker 16] busy ratio: 0.888889
[rank 1, worker 17] busy ratio: 0.882222
[rank 1, worker 18] busy ratio: 0.848889
[rank 1, worker 19] busy ratio: 0.846837
[rank 1, worker 20] busy ratio: 0.845556
[rank 1, worker 21] busy ratio: 0.884444
[rank 1, worker 22] busy ratio: 0.874584
[rank 1, worker 23] busy ratio: 0.875831
[rank 1, worker 24] busy ratio: 0.839068
[rank 1, worker 25] busy ratio: 0.835738
[rank 1, worker 26] busy ratio: 0.854606
[rank 1, worker 27] busy ratio: 0.846496
[rank 1, worker 28] busy ratio: 0.826667
[rank 1, worker 29] busy ratio: 0.824444
[rank 1, worker 30] busy ratio: 0.834444
[rank 1, worker 31] busy ratio: 0.830565
[rank 1, worker 32] busy ratio: 0.833333
[rank 1, worker 33] busy ratio: 0.843681
[rank 1, worker 34] busy ratio: 0.837778
[rank 1, worker 35] busy ratio: 0.835738
[rank 3, worker 21] busy ratio: 0.869180
[rank 3, worker 22] busy ratio: 0.871397
[rank 3, worker 23] busy ratio: 0.878049
[rank 3, worker 24] busy ratio: 0.853496
[rank 3, worker 25] busy ratio: 0.843507
[rank 3, worker 26] busy ratio: 0.853333
[rank 3, worker 27] busy ratio: 0.843681
[rank 3, worker 28] busy ratio: 0.837778
[rank 3, worker 29] busy ratio: 0.831299
[rank 3, worker 30] busy ratio: 0.828699
[rank 3, worker 31] busy ratio: 0.818889
[rank 3, worker 32] busy ratio: 0.827586
[rank 3, worker 33] busy ratio: 0.831299
[rank 3, worker 34] busy ratio: 0.838137
[rank 3, worker 35] busy ratio: 0.840000
[rank 3, worker 36] busy ratio: 0.837958
[rank 3, worker 37] busy ratio: 0.832408
[rank 3, worker 38] busy ratio: 0.831299
[rank 3, worker 39] busy ratio: 0.839068
[rank 3, worker 40] busy ratio: 0.839822
[rank 3, worker 41] busy ratio: 0.831299
[rank 3, worker 42] busy ratio: 0.827969
[rank 3, worker 43] busy ratio: 0.834444
[rank 3, worker 44] busy ratio: 0.837958
[rank 3, worker 45] busy ratio: 0.833333
[rank 3, worker 46] busy ratio: 0.838530
[rank 3, worker 47] busy ratio: 0.839068
[rank 3, worker 48] busy ratio: 0.835738
[rank 3, worker 49] busy ratio: 0.844617
[rank 3, worker 50] busy ratio: 0.835738
[rank 3, worker 51] busy ratio: 0.830189
[rank 3, worker 52] busy ratio: 0.832408
[rank 3, worker 53] busy ratio: 0.838710
[rank 3, worker 54] busy ratio: 0.836667
[rank 3, worker 55] busy ratio: 0.795328
[rank 0, worker 8] busy ratio: 0.846496
[rank 0, worker 9] busy ratio: 0.857936
[rank 0, worker 10] busy ratio: 0.851111
[rank 1, worker 36] busy ratio: 0.827969
[rank 1, worker 37] busy ratio: 0.824444
[rank 1, worker 38] busy ratio: 0.829079
[rank 0, worker 11] busy ratio: 0.834444
[rank 0, worker 12] busy ratio: 0.842222
[rank 0, worker 13] busy ratio: 0.844617
[rank 1, worker 39] busy ratio: 0.834260
[rank 1, worker 40] busy ratio: 0.830189
[rank 0, worker 14] busy ratio: 0.841111
[rank 0, worker 15] busy ratio: 0.840934
[rank 0, worker 16] busy ratio: 0.843507
[rank 1, worker 41] busy ratio: 0.837029
[rank 1, worker 42] busy ratio: 0.833703
[rank 2, worker 0] busy ratio: 0.952434
[rank 2, worker 1] busy ratio: 0.882353
[rank 2, worker 2] busy ratio: 0.877913
[rank 2, worker 3] busy ratio: 0.878889
[rank 2, worker 4] busy ratio: 0.852222
[rank 2, worker 5] busy ratio: 0.852222
[rank 2, worker 6] busy ratio: 0.841287
[rank 2, worker 7] busy ratio: 0.883463
[rank 2, worker 8] busy ratio: 0.878889
[rank 2, worker 9] busy ratio: 0.884573
[rank 0, worker 17] busy ratio: 0.862222
[rank 0, worker 18] busy ratio: 0.829621
[rank 1, worker 43] busy ratio: 0.833518
[rank 1, worker 44] busy ratio: 0.838710
[rank 0, worker 19] busy ratio: 0.846667
[rank 0, worker 20] busy ratio: 0.837029
[rank 0, worker 21] busy ratio: 0.832222
[rank 1, worker 45] busy ratio: 0.827051
[rank 1, worker 46] busy ratio: 0.838137
[rank 1, worker 47] busy ratio: 0.832036
[rank 1, worker 48] busy ratio: 0.832408
[rank 1, worker 49] busy ratio: 0.826474
[rank 2, worker 10] busy ratio: 0.850166
[rank 2, worker 11] busy ratio: 0.842397
[rank 2, worker 12] busy ratio: 0.847007
[rank 2, worker 13] busy ratio: 0.833518
[rank 2, worker 14] busy ratio: 0.882091
[rank 2, worker 15] busy ratio: 0.878889
[rank 2, worker 16] busy ratio: 0.873333
[rank 2, worker 17] busy ratio: 0.883333
[rank 2, worker 18] busy ratio: 0.837778
[rank 2, worker 19] busy ratio: 0.848889
[rank 2, worker 20] busy ratio: 0.841287
[rank 2, worker 21] busy ratio: 0.881375
[rank 2, worker 22] busy ratio: 0.880000
[rank 2, worker 23] busy ratio: 0.884444
[rank 2, worker 24] busy ratio: 0.852222
[rank 2, worker 25] busy ratio: 0.832222
[rank 2, worker 26] busy ratio: 0.845727
[rank 2, worker 27] busy ratio: 0.840934
[rank 2, worker 28] busy ratio: 0.815556
[rank 2, worker 29] busy ratio: 0.820912
[rank 2, worker 30] busy ratio: 0.826859
[rank 2, worker 31] busy ratio: 0.831849
[rank 2, worker 32] busy ratio: 0.834628
[rank 2, worker 33] busy ratio: 0.827778
[rank 2, worker 34] busy ratio: 0.834444
[rank 2, worker 35] busy ratio: 0.823333
[rank 0, worker 22] busy ratio: 0.834260
[rank 0, worker 23] busy ratio: 0.832408
[rank 1, worker 50] busy ratio: 0.827969
[rank 1, worker 51] busy ratio: 0.834444
[rank 1, worker 52] busy ratio: 0.827051
[rank 2, worker 36] busy ratio: 0.831111
[rank 2, worker 37] busy ratio: 0.824639
[rank 0, worker 24] busy ratio: 0.823725
[rank 0, worker 25] busy ratio: 0.826667
[rank 0, worker 26] busy ratio: 0.822222
[rank 1, worker 53] busy ratio: 0.817980
[rank 1, worker 54] busy ratio: 0.830000
[rank 2, worker 38] busy ratio: 0.822616
[rank 2, worker 39] busy ratio: 0.831111
[rank 2, worker 40] busy ratio: 0.826859
[rank 0, worker 27] busy ratio: 0.832962
[rank 0, worker 28] busy ratio: 0.858889
[rank 0, worker 29] busy ratio: 0.852550
[rank 1, worker 55] busy ratio: 0.767778
[rank 2, worker 41] busy ratio: 0.823529
[rank 2, worker 42] busy ratio: 0.804444
[rank 0, worker 30] busy ratio: 0.845556
[rank 0, worker 31] busy ratio: 0.845384
[rank 2, worker 43] busy ratio: 0.829268
[rank 2, worker 44] busy ratio: 0.826474
[rank 0, worker 32] busy ratio: 0.853333
[rank 0, worker 33] busy ratio: 0.837416
[rank 0, worker 34] busy ratio: 0.850000
[rank 2, worker 45] busy ratio: 0.795328
[rank 2, worker 46] busy ratio: 0.824444
[rank 2, worker 47] busy ratio: 0.815965
[rank 2, worker 48] busy ratio: 0.827051
[rank 2, worker 49] busy ratio: 0.821705
[rank 0, worker 35] busy ratio: 0.842397
[rank 0, worker 36] busy ratio: 0.850945
[rank 2, worker 50] busy ratio: 0.818182
[rank 2, worker 51] busy ratio: 0.819800
[rank 0, worker 37] busy ratio: 0.858889
[rank 0, worker 38] busy ratio: 0.834444
[rank 2, worker 52] busy ratio: 0.828889
[rank 2, worker 53] busy ratio: 0.817778
[rank 0, worker 39] busy ratio: 0.838889
[rank 0, worker 40] busy ratio: 0.837958
[rank 0, worker 41] busy ratio: 0.841111
[rank 2, worker 54] busy ratio: 0.830000
[rank 2, worker 55] busy ratio: 0.781737
[rank 0, worker 42] busy ratio: 0.829811
[rank 0, worker 43] busy ratio: 0.830923
[rank 0, worker 44] busy ratio: 0.837958
[rank 0, worker 45] busy ratio: 0.823333
[rank 0, worker 46] busy ratio: 0.847608
[rank 0, worker 47] busy ratio: 0.843507
[rank 0, worker 48] busy ratio: 0.837597
[rank 0, worker 49] busy ratio: 0.845727
[rank 0, worker 50] busy ratio: 0.829811
[rank 0, worker 51] busy ratio: 0.836667
[rank 0, worker 52] busy ratio: 0.837597
[rank 0, worker 53] busy ratio: 0.824053
[rank 0, worker 54] busy ratio: 0.832408
[rank 0, worker 55] busy ratio: 0.797118
Loop time of 9.01739 on 224 procs for 100 steps with 6912000 atoms

Performance: 4790.744 tau/day, 11.090 timesteps/s
4680.2% CPU use with 4 MPI tasks x 56 OpenMP threads

MPI task timing breakdown:
Section |  min time  |  avg time  |  max time  |%varavg| %total
---------------------------------------------------------------
Pair    | 4.279      | 4.3697     | 4.5858     |   6.0 | 48.46
Neigh   | 0.75922    | 0.7839     | 0.80604    |   2.0 |  8.69
Comm    | 1.2749     | 1.393      | 1.4743     |   6.4 | 15.45
Output  | 0.00064299 | 0.021882   | 0.03046    |   8.3 |  0.24
Modify  | 0.2471     | 0.29776    | 0.36227    |   7.6 |  3.30
Other   |            | 2.151      |            |       | 23.86

Nlocal:    1.728e+06 ave 1.72823e+06 max 1.72772e+06 min
Histogram: 1 0 0 0 0 1 1 0 0 1
Nghost:    260645 ave 260881 max 260518 min
Histogram: 1 1 1 0 0 0 0 0 0 1
Neighs:    0 ave 0 max 0 min
Histogram: 4 0 0 0 0 0 0 0 0 0
FullNghs:  1.2979e+08 ave 1.29814e+08 max 1.29771e+08 min
Histogram: 1 0 1 0 0 1 0 0 0 1

Total # of neighbors = 519161500
Ave neighs/atom = 75.1102
Neighbor list builds = 5
Dangerous builds not checked
Total wall time: 0:00:13
