LAMMPS (7 Aug 2019)
KOKKOS mode is enabled (../kokkos.cpp:85)
  will use up to 0 GPU(s) per node
  using 56 OpenMP thread(s) per MPI task
Lattice spacing in x,y,z = 1.6796 1.6796 1.6796
Created orthogonal box = (0 0 0) to (403.103 403.103 403.103)
  1 by 2 by 2 MPI processor grid
Created 55296000 atoms
  create_atoms CPU = 15.6847 secs
Neighbor list info ...
  update every 20 steps, delay 0 steps, check no
  max neighbors/atom: 2000, page size: 100000
  master list distance cutoff = 2.8
  ghost atom cutoff = 2.8
  binsize = 1.4, bins = 288 288 288
  1 neighbor lists, perpetual/occasional/extra = 1 0 0
  (1) pair lj/cut/kk, perpetual
      attributes: full, newton off, kokkos_device
      pair build: full/bin/kk/device
      stencil: full/bin/3d
      bin: kk/device
Setting up Verlet run ...
  Unit style    : lj
  Current step  : 0
  Time step     : 0.005
Per MPI rank memory allocation (min/avg/max) = 2.709e+04 | 2.709e+04 | 2.709e+04 Mbytes
Step Temp E_pair E_mol TotEng Press 
       0         1.44   -6.7733681            0   -4.6133681   -5.0196693 
     100   0.75942427   -5.7614518            0   -4.6223154   0.19008332 
[rank 0, worker 0] busy ratio: 0.957091
[rank 0, worker 1] busy ratio: 0.820700
[rank 0, worker 2] busy ratio: 0.811682
[rank 0, worker 3] busy ratio: 0.811349
[rank 0, worker 4] busy ratio: 0.811131
[rank 0, worker 5] busy ratio: 0.807546
[rank 0, worker 6] busy ratio: 0.815029
[rank 0, worker 7] busy ratio: 0.811559
[rank 0, worker 8] busy ratio: 0.813632
[rank 0, worker 9] busy ratio: 0.816150
[rank 0, worker 10] busy ratio: 0.817034
[rank 0, worker 11] busy ratio: 0.813717
[rank 0, worker 12] busy ratio: 0.808307
[rank 0, worker 13] busy ratio: 0.813992
[rank 0, worker 14] busy ratio: 0.808944
[rank 0, worker 15] busy ratio: 0.815942
[rank 0, worker 16] busy ratio: 0.810979
[rank 3, worker 0] busy ratio: 0.953156
[rank 3, worker 1] busy ratio: 0.840207
[rank 3, worker 2] busy ratio: 0.829150
[rank 3, worker 3] busy ratio: 0.837871
[rank 3, worker 4] busy ratio: 0.798844
[rank 3, worker 5] busy ratio: 0.807698
[rank 3, worker 6] busy ratio: 0.780551
[rank 3, worker 7] busy ratio: 0.835285
[rank 3, worker 8] busy ratio: 0.834981
[rank 3, worker 9] busy ratio: 0.838631
[rank 3, worker 10] busy ratio: 0.783508
[rank 3, worker 11] busy ratio: 0.799270
[rank 3, worker 12] busy ratio: 0.790114
[rank 3, worker 13] busy ratio: 0.789994
[rank 0, worker 17] busy ratio: 0.814753
[rank 0, worker 18] busy ratio: 0.806388
[rank 0, worker 19] busy ratio: 0.813812
[rank 0, worker 20] busy ratio: 0.810465
[rank 0, worker 21] busy ratio: 0.812291
[rank 0, worker 22] busy ratio: 0.811958
[rank 0, worker 23] busy ratio: 0.809459
[rank 0, worker 24] busy ratio: 0.813356
[rank 0, worker 25] busy ratio: 0.816274
[rank 0, worker 26] busy ratio: 0.808763
[rank 0, worker 27] busy ratio: 0.811008
[rank 0, worker 28] busy ratio: 0.808734
[rank 3, worker 14] busy ratio: 0.839416
[rank 3, worker 15] busy ratio: 0.834500
[rank 3, worker 16] busy ratio: 0.843650
[rank 3, worker 17] busy ratio: 0.839696
[rank 3, worker 18] busy ratio: 0.802403
[rank 3, worker 19] busy ratio: 0.790266
[rank 3, worker 20] busy ratio: 0.789658
[rank 3, worker 21] busy ratio: 0.839872
[rank 3, worker 22] busy ratio: 0.834195
[rank 3, worker 23] busy ratio: 0.829480
[rank 3, worker 24] busy ratio: 0.793581
[rank 3, worker 25] busy ratio: 0.799544
[rank 3, worker 26] busy ratio: 0.795102
[rank 3, worker 27] busy ratio: 0.781716
[rank 3, worker 28] busy ratio: 0.756391
[rank 3, worker 29] busy ratio: 0.772402
[rank 3, worker 30] busy ratio: 0.767569
[rank 3, worker 31] busy ratio: 0.761180
[rank 3, worker 32] busy ratio: 0.763999
[rank 3, worker 33] busy ratio: 0.771407
[rank 3, worker 34] busy ratio: 0.765287
[rank 3, worker 35] busy ratio: 0.775970
[rank 3, worker 36] busy ratio: 0.769582
[rank 3, worker 37] busy ratio: 0.770424
[rank 3, worker 38] busy ratio: 0.774532
[rank 3, worker 39] busy ratio: 0.764294
[rank 0, worker 29] busy ratio: 0.813051
[rank 0, worker 30] busy ratio: 0.802768
[rank 3, worker 40] busy ratio: 0.767873
[rank 3, worker 41] busy ratio: 0.770646
[rank 3, worker 42] busy ratio: 0.768376
[rank 3, worker 43] busy ratio: 0.762057
[rank 0, worker 31] busy ratio: 0.805598
[rank 0, worker 32] busy ratio: 0.808792
[rank 0, worker 33] busy ratio: 0.810161
[rank 3, worker 44] busy ratio: 0.773585
[rank 3, worker 45] busy ratio: 0.774989
[rank 3, worker 46] busy ratio: 0.776882
[rank 0, worker 34] busy ratio: 0.800852
[rank 0, worker 35] busy ratio: 0.815513
[rank 1, worker 0] busy ratio: 0.966530
[rank 1, worker 1] busy ratio: 0.832826
[rank 1, worker 2] busy ratio: 0.832370
[rank 1, worker 3] busy ratio: 0.828137
[rank 1, worker 4] busy ratio: 0.825525
[rank 1, worker 5] busy ratio: 0.808002
[rank 1, worker 6] busy ratio: 0.810646
[rank 1, worker 7] busy ratio: 0.825274
[rank 1, worker 8] busy ratio: 0.825703
[rank 1, worker 9] busy ratio: 0.827581
[rank 1, worker 10] busy ratio: 0.817490
[rank 1, worker 11] busy ratio: 0.811987
[rank 1, worker 12] busy ratio: 0.804563
[rank 1, worker 13] busy ratio: 0.797536
[rank 1, worker 14] busy ratio: 0.825247
[rank 1, worker 15] busy ratio: 0.824818
[rank 1, worker 16] busy ratio: 0.833612
[rank 1, worker 17] busy ratio: 0.833612
[rank 1, worker 18] busy ratio: 0.813175
[rank 1, worker 19] busy ratio: 0.806236
[rank 1, worker 20] busy ratio: 0.813204
[rank 1, worker 21] busy ratio: 0.829380
[rank 1, worker 22] busy ratio: 0.832421
[rank 1, worker 23] busy ratio: 0.833916
[rank 1, worker 24] busy ratio: 0.808915
[rank 1, worker 25] busy ratio: 0.815485
[rank 1, worker 26] busy ratio: 0.808061
[rank 1, worker 27] busy ratio: 0.813536
[rank 1, worker 28] busy ratio: 0.762325
[rank 1, worker 29] busy ratio: 0.764339
[rank 1, worker 30] busy ratio: 0.753956
[rank 1, worker 31] busy ratio: 0.761977
[rank 1, worker 32] busy ratio: 0.762057
[rank 1, worker 33] busy ratio: 0.763802
[rank 1, worker 34] busy ratio: 0.758594
[rank 1, worker 35] busy ratio: 0.765592
[rank 1, worker 36] busy ratio: 0.752054
[rank 1, worker 37] busy ratio: 0.756083
[rank 1, worker 38] busy ratio: 0.758631
[rank 1, worker 39] busy ratio: 0.755170
[rank 1, worker 40] busy ratio: 0.766540
[rank 1, worker 41] busy ratio: 0.747452
[rank 1, worker 42] busy ratio: 0.749772
[rank 1, worker 43] busy ratio: 0.743765
[rank 1, worker 44] busy ratio: 0.751027
[rank 1, worker 45] busy ratio: 0.754373
[rank 3, worker 47] busy ratio: 0.767077
[rank 3, worker 48] busy ratio: 0.779401
[rank 3, worker 49] busy ratio: 0.781141
[rank 0, worker 36] busy ratio: 0.805294
[rank 0, worker 37] busy ratio: 0.809582
[rank 3, worker 50] busy ratio: 0.770798
[rank 3, worker 51] busy ratio: 0.768400
[rank 3, worker 52] busy ratio: 0.776054
[rank 3, worker 53] busy ratio: 0.770846
[rank 3, worker 54] busy ratio: 0.765627
[rank 3, worker 55] busy ratio: 0.720134
[rank 0, worker 38] busy ratio: 0.809430
[rank 0, worker 39] busy ratio: 0.817767
[rank 0, worker 40] busy ratio: 0.814116
[rank 0, worker 41] busy ratio: 0.809915
[rank 0, worker 42] busy ratio: 0.811349
[rank 0, worker 43] busy ratio: 0.803074
[rank 0, worker 44] busy ratio: 0.809096
[rank 0, worker 45] busy ratio: 0.811863
[rank 0, worker 46] busy ratio: 0.801095
[rank 0, worker 47] busy ratio: 0.802616
[rank 0, worker 48] busy ratio: 0.805049
[rank 0, worker 49] busy ratio: 0.810125
[rank 0, worker 50] busy ratio: 0.806329
[rank 0, worker 51] busy ratio: 0.804533
[rank 0, worker 52] busy ratio: 0.815057
[rank 0, worker 53] busy ratio: 0.805141
[rank 0, worker 54] busy ratio: 0.788137
[rank 1, worker 46] busy ratio: 0.747072
[rank 1, worker 47] busy ratio: 0.760949
[rank 1, worker 48] busy ratio: 0.756654
[rank 1, worker 49] busy ratio: 0.751788
[rank 1, worker 50] busy ratio: 0.737603
[rank 1, worker 51] busy ratio: 0.759240
[rank 1, worker 52] busy ratio: 0.744639
[rank 1, worker 53] busy ratio: 0.752889
[rank 1, worker 54] busy ratio: 0.758594
[rank 1, worker 55] busy ratio: 0.689498
[rank 0, worker 55] busy ratio: 0.760043
[rank 2, worker 0] busy ratio: 0.955458
[rank 2, worker 1] busy ratio: 0.849642
[rank 2, worker 2] busy ratio: 0.850365
[rank 2, worker 3] busy ratio: 0.853948
[rank 2, worker 4] busy ratio: 0.829402
[rank 2, worker 5] busy ratio: 0.813175
[rank 2, worker 6] busy ratio: 0.829580
[rank 2, worker 7] busy ratio: 0.848950
[rank 2, worker 8] busy ratio: 0.853970
[rank 2, worker 9] busy ratio: 0.856252
[rank 2, worker 10] busy ratio: 0.826768
[rank 2, worker 11] busy ratio: 0.824791
[rank 2, worker 12] busy ratio: 0.829023
[rank 2, worker 13] busy ratio: 0.825194
[rank 2, worker 14] busy ratio: 0.857012
[rank 2, worker 15] busy ratio: 0.844539
[rank 2, worker 16] busy ratio: 0.850190
[rank 2, worker 17] busy ratio: 0.852624
[rank 2, worker 18] busy ratio: 0.827681
[rank 2, worker 19] busy ratio: 0.821168
[rank 2, worker 20] busy ratio: 0.821445
[rank 2, worker 21] busy ratio: 0.853992
[rank 2, worker 22] busy ratio: 0.853384
[rank 2, worker 23] busy ratio: 0.847406
[rank 2, worker 24] busy ratio: 0.817311
[rank 2, worker 25] busy ratio: 0.830367
[rank 2, worker 26] busy ratio: 0.820103
[rank 2, worker 27] busy ratio: 0.818071
[rank 2, worker 28] busy ratio: 0.725030
[rank 2, worker 29] busy ratio: 0.720134
[rank 2, worker 30] busy ratio: 0.722763
[rank 2, worker 31] busy ratio: 0.732846
[rank 2, worker 32] busy ratio: 0.748555
[rank 2, worker 33] busy ratio: 0.754373
[rank 2, worker 34] busy ratio: 0.746502
[rank 2, worker 35] busy ratio: 0.729804
[rank 2, worker 36] busy ratio: 0.718132
[rank 2, worker 37] busy ratio: 0.758710
[rank 2, worker 38] busy ratio: 0.753423
[rank 2, worker 39] busy ratio: 0.733343
[rank 2, worker 40] busy ratio: 0.753156
[rank 2, worker 41] busy ratio: 0.738859
[rank 2, worker 42] busy ratio: 0.702328
[rank 2, worker 43] busy ratio: 0.735858
[rank 2, worker 44] busy ratio: 0.726457
[rank 2, worker 45] busy ratio: 0.725890
[rank 2, worker 46] busy ratio: 0.755589
[rank 2, worker 47] busy ratio: 0.735665
[rank 2, worker 48] busy ratio: 0.733191
Loop time of 65.7745 on 224 procs for 100 steps with 55296000 atoms

Performance: 656.790 tau/day, 1.520 timesteps/s
4397.0% CPU use with 4 MPI tasks x 56 OpenMP threads

MPI task timing breakdown:
Section |  min time  |  avg time  |  max time  |%varavg| %total
---------------------------------------------------------------
Pair    | 32.092     | 32.311     | 32.627     |   3.8 | 49.12
[rank 2, worker 49] busy ratio: 0.746464
[rank 2, worker 50] busy ratio: 0.744335
[rank 2, worker 51] busy ratio: 0.741710
[rank 2, worker 52] busy ratio: 0.756769
[rank 2, worker 53] busy ratio: 0.740910
[rank 2, worker 54] busy ratio: 0.707636
[rank 2, worker 55] busy ratio: 0.661745
Neigh   | 6.708      | 6.9267     | 7.113      |   5.9 | 10.53
Comm    | 10.651     | 13.817     | 15.458     |  50.7 | 21.01
Output  | 0.0037812  | 0.093876   | 0.22671    |  28.1 |  0.14
Modify  | 1.6723     | 1.8909     | 2.2145     |  14.7 |  2.87
Other   |            | 10.74      |            |       | 16.32

Nlocal:    1.3824e+07 ave 1.38247e+07 max 1.38235e+07 min
Histogram: 1 1 0 0 0 0 1 0 0 1
Nghost:    1.01912e+06 ave 1.01965e+06 max 1.0184e+06 min
Histogram: 1 0 0 0 1 0 0 0 1 1
Neighs:    0 ave 0 max 0 min
Histogram: 4 0 0 0 0 0 0 0 0 0
FullNghs:  1.0383e+09 ave 1.03837e+09 max 1.03824e+09 min
Histogram: 1 0 1 0 0 1 0 0 0 1

Total # of neighbors = 4.1532e+09
Ave neighs/atom = 75.1085
Neighbor list builds = 5
Dangerous builds not checked
Total wall time: 0:01:29
