LAMMPS (7 Aug 2019)
KOKKOS mode is enabled (../kokkos.cpp:85)
  will use up to 0 GPU(s) per node
  using 56 OpenMP thread(s) per MPI task
Lattice spacing in x,y,z = 1.6796 1.6796 1.6796
Created orthogonal box = (0 0 0) to (268.735 268.735 268.735)
  1 by 2 by 2 MPI processor grid
Created 16384000 atoms
  create_atoms CPU = 6.87302 secs
Neighbor list info ...
  update every 20 steps, delay 0 steps, check no
  max neighbors/atom: 2000, page size: 100000
  master list distance cutoff = 2.8
  ghost atom cutoff = 2.8
  binsize = 1.4, bins = 192 192 192
  1 neighbor lists, perpetual/occasional/extra = 1 0 0
  (1) pair lj/cut/kk, perpetual
      attributes: full, newton off, kokkos_device
      pair build: full/bin/kk/device
      stencil: full/bin/3d
      bin: kk/device
Setting up Verlet run ...
  Unit style    : lj
  Current step  : 0
  Time step     : 0.005
Per MPI rank memory allocation (min/avg/max) = 8306 | 8306 | 8306 Mbytes
Step Temp E_pair E_mol TotEng Press 
       0         1.44   -6.7733681            0   -4.6133682   -5.0196693 
     100   0.75918554   -5.7610896            0   -4.6223114   0.19195085 
[rank 0, worker 0] busy ratio: 0.967270
[rank 0, worker 1] busy ratio: 0.783772
[rank 0, worker 2] busy ratio: 0.794219
[rank 0, worker 3] busy ratio: 0.792062
[rank 0, worker 4] busy ratio: 0.795857
[rank 0, worker 5] busy ratio: 0.798015
[rank 0, worker 6] busy ratio: 0.805352
[rank 0, worker 7] busy ratio: 0.805867
[rank 0, worker 8] busy ratio: 0.795513
[rank 0, worker 9] busy ratio: 0.801207
[rank 0, worker 10] busy ratio: 0.804920
[rank 0, worker 11] busy ratio: 0.808887
[rank 0, worker 12] busy ratio: 0.809750
[rank 0, worker 13] busy ratio: 0.801984
[rank 0, worker 14] busy ratio: 0.800086
[rank 0, worker 15] busy ratio: 0.805867
[rank 0, worker 16] busy ratio: 0.805436
[rank 0, worker 17] busy ratio: 0.796720
[rank 0, worker 18] busy ratio: 0.807593
[rank 0, worker 19] busy ratio: 0.806813
[rank 0, worker 20] busy ratio: 0.795857
[rank 0, worker 21] busy ratio: 0.795857
[rank 0, worker 22] busy ratio: 0.795513
[rank 0, worker 23] busy ratio: 0.810181
[rank 0, worker 24] busy ratio: 0.798533
[rank 0, worker 25] busy ratio: 0.803194
[rank 0, worker 26] busy ratio: 0.793103
[rank 3, worker 0] busy ratio: 0.930945
[rank 3, worker 1] busy ratio: 0.856835
[rank 3, worker 2] busy ratio: 0.864597
[rank 3, worker 3] busy ratio: 0.865401
[rank 3, worker 4] busy ratio: 0.810017
[rank 3, worker 5] busy ratio: 0.808969
[rank 3, worker 6] busy ratio: 0.811044
[rank 3, worker 7] busy ratio: 0.870091
[rank 3, worker 8] busy ratio: 0.870578
[rank 3, worker 9] busy ratio: 0.871552
[rank 3, worker 10] busy ratio: 0.820966
[rank 3, worker 11] busy ratio: 0.810181
[rank 3, worker 12] busy ratio: 0.830603
[rank 3, worker 13] busy ratio: 0.816731
[rank 3, worker 14] busy ratio: 0.873707
[rank 3, worker 15] busy ratio: 0.863617
[rank 3, worker 16] busy ratio: 0.879586
[rank 3, worker 17] busy ratio: 0.876565
[rank 0, worker 27] busy ratio: 0.795513
[rank 0, worker 28] busy ratio: 0.759171
[rank 0, worker 29] busy ratio: 0.769728
[rank 1, worker 0] busy ratio: 0.939983
[rank 1, worker 1] busy ratio: 0.863244
[rank 1, worker 2] busy ratio: 0.870315
[rank 1, worker 3] busy ratio: 0.870634
[rank 1, worker 4] busy ratio: 0.836066
[rank 1, worker 5] busy ratio: 0.820104
[rank 1, worker 6] busy ratio: 0.833980
[rank 1, worker 7] busy ratio: 0.876293
[rank 1, worker 8] busy ratio: 0.874515
[rank 0, worker 30] busy ratio: 0.786454
[rank 0, worker 31] busy ratio: 0.780414
[rank 1, worker 9] busy ratio: 0.871496
[rank 1, worker 10] busy ratio: 0.840811
[rank 1, worker 11] busy ratio: 0.832255
[rank 1, worker 12] busy ratio: 0.843036
[rank 1, worker 13] busy ratio: 0.839085
[rank 1, worker 14] busy ratio: 0.872414
[rank 1, worker 15] busy ratio: 0.873707
[rank 1, worker 16] busy ratio: 0.875809
[rank 1, worker 17] busy ratio: 0.873330
[rank 1, worker 18] busy ratio: 0.836066
[rank 1, worker 19] busy ratio: 0.835274
[rank 1, worker 20] busy ratio: 0.822692
[rank 1, worker 21] busy ratio: 0.878017
[rank 1, worker 22] busy ratio: 0.885776
[rank 1, worker 23] busy ratio: 0.881947
[rank 1, worker 24] busy ratio: 0.834843
[rank 1, worker 25] busy ratio: 0.849073
[rank 1, worker 26] busy ratio: 0.829521
[rank 1, worker 27] busy ratio: 0.837791
[rank 3, worker 18] busy ratio: 0.820181
[rank 3, worker 19] busy ratio: 0.830962
[rank 3, worker 20] busy ratio: 0.832542
[rank 3, worker 21] busy ratio: 0.875000
[rank 3, worker 22] busy ratio: 0.866753
[rank 3, worker 23] busy ratio: 0.875755
[rank 3, worker 24] busy ratio: 0.836207
[rank 3, worker 25] busy ratio: 0.825712
[rank 3, worker 26] busy ratio: 0.836567
[rank 3, worker 27] busy ratio: 0.820535
[rank 3, worker 28] busy ratio: 0.721623
[rank 3, worker 29] busy ratio: 0.724212
[rank 3, worker 30] busy ratio: 0.734914
[rank 3, worker 31] busy ratio: 0.675874
[rank 3, worker 32] busy ratio: 0.703624
[rank 3, worker 33] busy ratio: 0.709538
[rank 3, worker 34] busy ratio: 0.704183
[rank 3, worker 35] busy ratio: 0.706517
[rank 3, worker 36] busy ratio: 0.724019
[rank 3, worker 37] busy ratio: 0.707759
[rank 3, worker 38] busy ratio: 0.699439
[rank 3, worker 39] busy ratio: 0.715948
[rank 3, worker 40] busy ratio: 0.709483
[rank 3, worker 41] busy ratio: 0.726920
[rank 3, worker 42] busy ratio: 0.677893
[rank 3, worker 43] busy ratio: 0.707075
[rank 0, worker 32] busy ratio: 0.781708
[rank 0, worker 33] busy ratio: 0.797239
[rank 0, worker 34] busy ratio: 0.780846
[rank 1, worker 28] busy ratio: 0.672138
[rank 1, worker 29] busy ratio: 0.669257
[rank 1, worker 30] busy ratio: 0.707380
[rank 3, worker 44] busy ratio: 0.708801
[rank 3, worker 45] busy ratio: 0.700733
[rank 3, worker 46] busy ratio: 0.695259
[rank 3, worker 47] busy ratio: 0.724138
[rank 0, worker 35] busy ratio: 0.779456
[rank 0, worker 36] busy ratio: 0.800259
[rank 1, worker 31] busy ratio: 0.675151
[rank 1, worker 32] busy ratio: 0.686503
[rank 3, worker 48] busy ratio: 0.705476
[rank 3, worker 49] busy ratio: 0.697584
[rank 3, worker 50] busy ratio: 0.702586
[rank 3, worker 51] busy ratio: 0.689953
[rank 0, worker 37] busy ratio: 0.764021
[rank 0, worker 38] busy ratio: 0.774806
[rank 1, worker 33] busy ratio: 0.691976
[rank 1, worker 34] busy ratio: 0.681328
[rank 3, worker 52] busy ratio: 0.704487
[rank 3, worker 53] busy ratio: 0.700906
[rank 3, worker 54] busy ratio: 0.690948
[rank 0, worker 39] busy ratio: 0.749892
[rank 0, worker 40] busy ratio: 0.774374
[rank 0, worker 41] busy ratio: 0.791631
[rank 1, worker 35] busy ratio: 0.696590
[rank 1, worker 36] busy ratio: 0.679758
[rank 3, worker 55] busy ratio: 0.661777
[rank 0, worker 42] busy ratio: 0.764350
[rank 0, worker 43] busy ratio: 0.785653
[rank 1, worker 37] busy ratio: 0.688659
[rank 1, worker 38] busy ratio: 0.684211
[rank 0, worker 44] busy ratio: 0.758948
[rank 0, worker 45] busy ratio: 0.750755
[rank 1, worker 39] busy ratio: 0.696459
[rank 1, worker 40] busy ratio: 0.702889
[rank 0, worker 46] busy ratio: 0.764554
[rank 0, worker 47] busy ratio: 0.790858
[rank 2, worker 0] busy ratio: 0.955661
[rank 2, worker 1] busy ratio: 0.829521
[rank 2, worker 2] busy ratio: 0.832110
[rank 2, worker 3] busy ratio: 0.835492
[rank 2, worker 4] busy ratio: 0.811744
[rank 2, worker 5] busy ratio: 0.816142
[rank 2, worker 6] busy ratio: 0.810962
[rank 2, worker 7] busy ratio: 0.836426
[rank 2, worker 8] busy ratio: 0.832614
[rank 2, worker 9] busy ratio: 0.832110
[rank 2, worker 10] busy ratio: 0.803279
[rank 2, worker 11] busy ratio: 0.822768
[rank 2, worker 12] busy ratio: 0.813984
[rank 2, worker 13] busy ratio: 0.804489
[rank 2, worker 14] busy ratio: 0.838223
[rank 2, worker 15] busy ratio: 0.839810
[rank 2, worker 16] busy ratio: 0.840811
[rank 2, worker 17] busy ratio: 0.836928
[rank 2, worker 18] busy ratio: 0.818378
[rank 1, worker 41] busy ratio: 0.707633
[rank 1, worker 42] busy ratio: 0.673566
[rank 1, worker 43] busy ratio: 0.693437
[rank 1, worker 44] busy ratio: 0.681053
[rank 1, worker 45] busy ratio: 0.676445
[rank 0, worker 48] busy ratio: 0.753561
[rank 0, worker 49] busy ratio: 0.805520
[rank 0, worker 50] busy ratio: 0.740293
[rank 1, worker 46] busy ratio: 0.702633
[rank 1, worker 47] busy ratio: 0.703624
[rank 0, worker 51] busy ratio: 0.760138
[rank 0, worker 52] busy ratio: 0.767372
[rank 1, worker 48] busy ratio: 0.708549
[rank 1, worker 49] busy ratio: 0.659326
[rank 0, worker 53] busy ratio: 0.749461
[rank 0, worker 54] busy ratio: 0.782571
[rank 1, worker 50] busy ratio: 0.693569
[rank 1, worker 51] busy ratio: 0.684937
[rank 1, worker 52] busy ratio: 0.695127
[rank 0, worker 55] busy ratio: 0.778353
[rank 2, worker 19] busy ratio: 0.819241
[rank 2, worker 20] busy ratio: 0.797239
[rank 2, worker 21] busy ratio: 0.836999
[rank 2, worker 22] busy ratio: 0.841174
[rank 2, worker 23] busy ratio: 0.843898
[rank 2, worker 24] busy ratio: 0.811044
[rank 2, worker 25] busy ratio: 0.817358
[rank 2, worker 26] busy ratio: 0.800690
[rank 2, worker 27] busy ratio: 0.808024
[rank 2, worker 28] busy ratio: 0.712128
[rank 2, worker 29] busy ratio: 0.742019
[rank 2, worker 30] busy ratio: 0.752266
[rank 2, worker 31] busy ratio: 0.733391
[rank 2, worker 32] busy ratio: 0.740181
[rank 2, worker 33] busy ratio: 0.745470
[rank 2, worker 34] busy ratio: 0.750647
[rank 2, worker 35] busy ratio: 0.719586
[rank 2, worker 36] busy ratio: 0.753992
[rank 2, worker 37] busy ratio: 0.722054
[rank 2, worker 38] busy ratio: 0.752804
[rank 2, worker 39] busy ratio: 0.718480
[rank 2, worker 40] busy ratio: 0.749568
[rank 2, worker 41] busy ratio: 0.760569
[rank 2, worker 42] busy ratio: 0.730022
[rank 2, worker 43] busy ratio: 0.752266
[rank 2, worker 44] busy ratio: 0.740181
[rank 2, worker 45] busy ratio: 0.730371
[rank 1, worker 53] busy ratio: 0.695558
[rank 1, worker 54] busy ratio: 0.685209
[rank 2, worker 46] busy ratio: 0.758740
[rank 2, worker 47] busy ratio: 0.765645
[rank 2, worker 48] busy ratio: 0.744929
[rank 2, worker 49] busy ratio: 0.757981
[rank 1, worker 55] busy ratio: 0.626672
[rank 2, worker 50] busy ratio: 0.740725
[rank 2, worker 51] busy ratio: 0.762624
[rank 2, worker 52] busy ratio: 0.751510
[rank 2, worker 53] busy ratio: 0.758412
[rank 2, worker 54] busy ratio: 0.745360
[rank 2, worker 55] busy ratio: 0.734571
Loop time of 23.2029 on 224 procs for 100 steps with 16384000 atoms

Performance: 1861.839 tau/day, 4.310 timesteps/s
4318.2% CPU use with 4 MPI tasks x 56 OpenMP threads

MPI task timing breakdown:
Section |  min time  |  avg time  |  max time  |%varavg| %total
---------------------------------------------------------------
Pair    | 10.812     | 11.297     | 12.455     |  20.0 | 48.69
Neigh   | 1.8465     | 1.8909     | 1.9604     |   3.2 |  8.15
Comm    | 2.6361     | 4.5102     | 6.3053     |  66.3 | 19.44
Output  | 0.0014013  | 0.087726   | 0.14179    |  18.0 |  0.38
Modify  | 0.59082    | 0.62705    | 0.67336    |   4.7 |  2.70
Other   |            | 4.79       |            |       | 20.65

Nlocal:    4.096e+06 ave 4.09657e+06 max 4.09544e+06 min
Histogram: 1 0 0 1 0 0 1 0 0 1
Nghost:    458178 ave 458566 max 457741 min
Histogram: 1 0 0 0 1 0 0 1 0 1
Neighs:    0 ave 0 max 0 min
Histogram: 4 0 0 0 0 0 0 0 0 0
FullNghs:  3.07645e+08 ave 3.07688e+08 max 3.07588e+08 min
Histogram: 1 0 0 0 1 0 0 0 1 1

Total # of neighbors = 1230581798
Ave neighs/atom = 75.1088
Neighbor list builds = 5
Dangerous builds not checked
Total wall time: 0:00:32
