LAMMPS (7 Aug 2019)
KOKKOS mode is enabled (../kokkos.cpp:85)
  will use up to 0 GPU(s) per node
  using 56 OpenMP thread(s) per MPI task
Lattice spacing in x,y,z = 1.6796 1.6796 1.6796
Created orthogonal box = (0 0 0) to (201.552 201.552 201.552)
  1 by 2 by 2 MPI processor grid
Created 6912000 atoms
  create_atoms CPU = 3.43566 secs
Neighbor list info ...
  update every 20 steps, delay 0 steps, check no
  max neighbors/atom: 2000, page size: 100000
  master list distance cutoff = 2.8
  ghost atom cutoff = 2.8
  binsize = 1.4, bins = 144 144 144
  1 neighbor lists, perpetual/occasional/extra = 1 0 0
  (1) pair lj/cut/kk, perpetual
      attributes: full, newton off, kokkos_device
      pair build: full/bin/kk/device
      stencil: full/bin/3d
      bin: kk/device
Setting up Verlet run ...
  Unit style    : lj
  Current step  : 0
  Time step     : 0.005
Per MPI rank memory allocation (min/avg/max) = 3650 | 3650 | 3650 Mbytes
Step Temp E_pair E_mol TotEng Press 
       0         1.44   -6.7733681            0   -4.6133684   -5.0196694 
     100   0.75929363   -5.7612508            0   -4.6223105   0.19076255 
[rank 0, worker 0] busy ratio: 0.947598
[rank 0, worker 1] busy ratio: 0.822757
[rank 0, worker 2] busy ratio: 0.842048
[rank 0, worker 3] busy ratio: 0.846572
[rank 3, worker 0] busy ratio: 0.953108
[rank 3, worker 1] busy ratio: 0.878953
[rank 3, worker 2] busy ratio: 0.874317
[rank 3, worker 3] busy ratio: 0.884279
[rank 3, worker 4] busy ratio: 0.843716
[rank 3, worker 5] busy ratio: 0.831510
[rank 3, worker 6] busy ratio: 0.847495
[rank 3, worker 7] busy ratio: 0.875546
[rank 3, worker 8] busy ratio: 0.886339
[rank 1, worker 0] busy ratio: 0.953108
[rank 1, worker 1] busy ratio: 0.859477
[rank 1, worker 2] busy ratio: 0.864130
[rank 1, worker 3] busy ratio: 0.848419
[rank 1, worker 4] busy ratio: 0.842795
[rank 1, worker 5] busy ratio: 0.842048
[rank 1, worker 6] busy ratio: 0.843137
[rank 1, worker 7] busy ratio: 0.866957
[rank 1, worker 8] busy ratio: 0.864924
[rank 0, worker 4] busy ratio: 0.842795
[rank 0, worker 5] busy ratio: 0.842048
[rank 0, worker 6] busy ratio: 0.837336
[rank 0, worker 7] busy ratio: 0.840959
[rank 0, worker 8] busy ratio: 0.847328
[rank 3, worker 9] busy ratio: 0.876906
[rank 3, worker 10] busy ratio: 0.853871
[rank 3, worker 11] busy ratio: 0.835333
[rank 3, worker 12] busy ratio: 0.841876
[rank 3, worker 13] busy ratio: 0.840785
[rank 3, worker 14] busy ratio: 0.876503
[rank 3, worker 15] busy ratio: 0.886463
[rank 3, worker 16] busy ratio: 0.885371
[rank 3, worker 17] busy ratio: 0.881004
[rank 3, worker 18] busy ratio: 0.853871
[rank 3, worker 19] busy ratio: 0.847328
[rank 3, worker 20] busy ratio: 0.851528
[rank 3, worker 21] busy ratio: 0.883188
[rank 3, worker 22] busy ratio: 0.879085
[rank 3, worker 23] busy ratio: 0.870087
[rank 3, worker 24] busy ratio: 0.835333
[rank 3, worker 25] busy ratio: 0.833333
[rank 3, worker 26] busy ratio: 0.846070
[rank 3, worker 27] busy ratio: 0.831155
[rank 3, worker 28] busy ratio: 0.810251
[rank 3, worker 29] busy ratio: 0.805889
[rank 3, worker 30] busy ratio: 0.808952
[rank 3, worker 31] busy ratio: 0.795852
[rank 3, worker 32] busy ratio: 0.805677
[rank 2, worker 0] busy ratio: 0.952017
[rank 2, worker 1] busy ratio: 0.861050
[rank 2, worker 2] busy ratio: 0.864629
[rank 2, worker 3] busy ratio: 0.865867
[rank 2, worker 4] busy ratio: 0.838604
[rank 2, worker 5] busy ratio: 0.847328
[rank 2, worker 6] busy ratio: 0.827511
[rank 2, worker 7] busy ratio: 0.872271
[rank 2, worker 8] busy ratio: 0.860566
[rank 1, worker 9] busy ratio: 0.863834
[rank 1, worker 10] busy ratio: 0.842966
[rank 1, worker 11] busy ratio: 0.837867
[rank 1, worker 12] busy ratio: 0.836601
[rank 1, worker 13] busy ratio: 0.831155
[rank 1, worker 14] busy ratio: 0.865867
[rank 1, worker 15] busy ratio: 0.859324
[rank 1, worker 16] busy ratio: 0.864629
[rank 1, worker 17] busy ratio: 0.859324
[rank 1, worker 18] busy ratio: 0.838780
[rank 1, worker 19] busy ratio: 0.824810
[rank 1, worker 20] busy ratio: 0.837514
[rank 1, worker 21] busy ratio: 0.859630
[rank 1, worker 22] busy ratio: 0.854189
[rank 1, worker 23] busy ratio: 0.867102
[rank 1, worker 24] busy ratio: 0.837691
[rank 1, worker 25] busy ratio: 0.832969
[rank 1, worker 26] busy ratio: 0.835333
[rank 1, worker 27] busy ratio: 0.836601
[rank 1, worker 28] busy ratio: 0.812022
[rank 1, worker 29] busy ratio: 0.820261
[rank 1, worker 30] busy ratio: 0.811135
[rank 1, worker 31] busy ratio: 0.810251
[rank 1, worker 32] busy ratio: 0.830786
[rank 1, worker 33] busy ratio: 0.821351
[rank 0, worker 9] busy ratio: 0.850925
[rank 0, worker 10] busy ratio: 0.846238
[rank 0, worker 11] busy ratio: 0.838604
[rank 3, worker 33] busy ratio: 0.810251
[rank 3, worker 34] busy ratio: 0.816794
[rank 2, worker 9] busy ratio: 0.859477
[rank 2, worker 10] busy ratio: 0.853552
[rank 2, worker 11] busy ratio: 0.830971
[rank 2, worker 12] busy ratio: 0.837336
[rank 2, worker 13] busy ratio: 0.847328
[rank 2, worker 14] busy ratio: 0.871320
[rank 2, worker 15] busy ratio: 0.863537
[rank 2, worker 16] busy ratio: 0.859170
[rank 2, worker 17] busy ratio: 0.868335
[rank 2, worker 18] busy ratio: 0.842623
[rank 2, worker 19] busy ratio: 0.842966
[rank 2, worker 20] busy ratio: 0.842623
[rank 2, worker 21] busy ratio: 0.860414
[rank 2, worker 22] busy ratio: 0.861354
[rank 2, worker 23] busy ratio: 0.858388
[rank 2, worker 24] busy ratio: 0.825708
[rank 2, worker 25] busy ratio: 0.836423
[rank 2, worker 26] busy ratio: 0.849509
[rank 2, worker 27] busy ratio: 0.837336
[rank 2, worker 28] busy ratio: 0.805889
[rank 2, worker 29] busy ratio: 0.796074
[rank 2, worker 30] busy ratio: 0.803493
[rank 2, worker 31] busy ratio: 0.804798
[rank 2, worker 32] busy ratio: 0.818975
[rank 2, worker 33] busy ratio: 0.821545
[rank 2, worker 34] busy ratio: 0.811752
[rank 2, worker 35] busy ratio: 0.807190
[rank 2, worker 36] busy ratio: 0.810458
[rank 2, worker 37] busy ratio: 0.823337
[rank 2, worker 38] busy ratio: 0.806100
[rank 2, worker 39] busy ratio: 0.809576
[rank 2, worker 40] busy ratio: 0.808952
[rank 2, worker 41] busy ratio: 0.813522
[rank 2, worker 42] busy ratio: 0.801310
[rank 2, worker 43] busy ratio: 0.812432
[rank 2, worker 44] busy ratio: 0.823337
[rank 2, worker 45] busy ratio: 0.801310
[rank 2, worker 46] busy ratio: 0.798255
[rank 2, worker 47] busy ratio: 0.810458
[rank 2, worker 48] busy ratio: 0.803708
[rank 2, worker 49] busy ratio: 0.805011
[rank 2, worker 50] busy ratio: 0.806100
[rank 2, worker 51] busy ratio: 0.821156
[rank 2, worker 52] busy ratio: 0.815502
[rank 2, worker 53] busy ratio: 0.815703
[rank 2, worker 54] busy ratio: 0.808279
[rank 2, worker 55] busy ratio: 0.782751
[rank 1, worker 34] busy ratio: 0.828790
[rank 1, worker 35] busy ratio: 0.811135
[rank 1, worker 36] busy ratio: 0.807190
[rank 0, worker 12] busy ratio: 0.838780
[rank 0, worker 13] busy ratio: 0.840785
[rank 0, worker 14] busy ratio: 0.837691
[rank 3, worker 35] busy ratio: 0.801310
[rank 3, worker 36] busy ratio: 0.806100
[rank 1, worker 37] busy ratio: 0.809368
[rank 1, worker 38] busy ratio: 0.820261
[rank 0, worker 15] busy ratio: 0.835333
[rank 0, worker 16] busy ratio: 0.832061
[rank 3, worker 37] busy ratio: 0.820065
[rank 3, worker 38] busy ratio: 0.811341
[rank 1, worker 39] busy ratio: 0.823529
[rank 1, worker 40] busy ratio: 0.828790
[rank 0, worker 17] busy ratio: 0.853871
[rank 0, worker 18] busy ratio: 0.833152
[rank 3, worker 39] busy ratio: 0.798035
[rank 3, worker 40] busy ratio: 0.800218
[rank 1, worker 41] busy ratio: 0.823337
[rank 1, worker 42] busy ratio: 0.812432
[rank 0, worker 19] busy ratio: 0.835333
[rank 0, worker 20] busy ratio: 0.830971
[rank 0, worker 21] busy ratio: 0.813725
[rank 3, worker 41] busy ratio: 0.808070
[rank 3, worker 42] busy ratio: 0.799346
[rank 3, worker 43] busy ratio: 0.799127
[rank 3, worker 44] busy ratio: 0.805889
[rank 3, worker 45] busy ratio: 0.807650
[rank 1, worker 43] busy ratio: 0.813522
[rank 1, worker 44] busy ratio: 0.806100
[rank 1, worker 45] busy ratio: 0.815703
[rank 1, worker 46] busy ratio: 0.821351
[rank 1, worker 47] busy ratio: 0.820261
[rank 0, worker 22] busy ratio: 0.824427
[rank 0, worker 23] busy ratio: 0.830786
[rank 3, worker 46] busy ratio: 0.792803
[rank 3, worker 47] busy ratio: 0.801743
[rank 1, worker 48] busy ratio: 0.835512
[rank 1, worker 49] busy ratio: 0.805011
[rank 0, worker 24] busy ratio: 0.815904
[rank 0, worker 25] busy ratio: 0.828790
[rank 0, worker 26] busy ratio: 0.817884
[rank 3, worker 48] busy ratio: 0.810251
[rank 3, worker 49] busy ratio: 0.803493
[rank 1, worker 50] busy ratio: 0.803708
[rank 1, worker 51] busy ratio: 0.814410
[rank 0, worker 27] busy ratio: 0.814815
[rank 0, worker 28] busy ratio: 0.834423
[rank 3, worker 50] busy ratio: 0.806769
[rank 3, worker 51] busy ratio: 0.806979
[rank 1, worker 52] busy ratio: 0.827699
[rank 1, worker 53] busy ratio: 0.826986
[rank 0, worker 29] busy ratio: 0.838604
[rank 0, worker 30] busy ratio: 0.836601
[rank 3, worker 52] busy ratio: 0.814208
[rank 3, worker 53] busy ratio: 0.810251
[rank 1, worker 54] busy ratio: 0.816993
[rank 1, worker 55] busy ratio: 0.772331
[rank 0, worker 31] busy ratio: 0.839869
[rank 0, worker 32] busy ratio: 0.847495
[rank 0, worker 33] busy ratio: 0.833152
[rank 3, worker 54] busy ratio: 0.798255
[rank 3, worker 55] busy ratio: 0.742358
[rank 0, worker 34] busy ratio: 0.836423
[rank 0, worker 35] busy ratio: 0.845147
[rank 0, worker 36] busy ratio: 0.843886
[rank 0, worker 37] busy ratio: 0.845147
[rank 0, worker 38] busy ratio: 0.828976
[rank 0, worker 39] busy ratio: 0.832061
[rank 0, worker 40] busy ratio: 0.834423
[rank 0, worker 41] busy ratio: 0.843886
[rank 0, worker 42] busy ratio: 0.838780
[rank 0, worker 43] busy ratio: 0.831155
[rank 0, worker 44] busy ratio: 0.845147
[rank 0, worker 45] busy ratio: 0.830971
[rank 0, worker 46] busy ratio: 0.823337
[rank 0, worker 47] busy ratio: 0.821156
[rank 0, worker 48] busy ratio: 0.823529
[rank 0, worker 49] busy ratio: 0.837691
[rank 0, worker 50] busy ratio: 0.828790
[rank 0, worker 51] busy ratio: 0.833515
[rank 0, worker 52] busy ratio: 0.835691
[rank 0, worker 53] busy ratio: 0.820065
[rank 0, worker 54] busy ratio: 0.828976
[rank 0, worker 55] busy ratio: 0.789760
Loop time of 9.1856 on 224 procs for 100 steps with 6912000 atoms

Performance: 4703.012 tau/day, 10.887 timesteps/s
4610.9% CPU use with 4 MPI tasks x 56 OpenMP threads

MPI task timing breakdown:
Section |  min time  |  avg time  |  max time  |%varavg| %total
---------------------------------------------------------------
Pair    | 4.4674     | 4.5071     | 4.5928     |   2.4 | 49.07
Neigh   | 0.79892    | 0.82889    | 0.89097    |   4.0 |  9.02
Comm    | 1.3978     | 1.5413     | 1.71       |   9.4 | 16.78
Output  | 0.0005132  | 0.012241   | 0.020331   |   7.2 |  0.13
Modify  | 0.23455    | 0.27674    | 0.30133    |   5.1 |  3.01
Other   |            | 2.019      |            |       | 21.98

Nlocal:    1.728e+06 ave 1.72823e+06 max 1.72772e+06 min
Histogram: 1 0 0 0 0 1 1 0 0 1
Nghost:    260645 ave 260881 max 260518 min
Histogram: 1 1 1 0 0 0 0 0 0 1
Neighs:    0 ave 0 max 0 min
Histogram: 4 0 0 0 0 0 0 0 0 0
FullNghs:  1.2979e+08 ave 1.29814e+08 max 1.29771e+08 min
Histogram: 1 0 1 0 0 1 0 0 0 1

Total # of neighbors = 519161500
Ave neighs/atom = 75.1102
Neighbor list builds = 5
Dangerous builds not checked
Total wall time: 0:00:14
