LAMMPS (7 Aug 2019)
KOKKOS mode is enabled (../kokkos.cpp:85)
  will use up to 0 GPU(s) per node
  using 56 OpenMP thread(s) per MPI task
Lattice spacing in x,y,z = 1.6796 1.6796 1.6796
Created orthogonal box = (0 0 0) to (335.919 335.919 335.919)
  1 by 2 by 2 MPI processor grid
Created 32000000 atoms
  create_atoms CPU = 10.1031 secs
Neighbor list info ...
  update every 20 steps, delay 0 steps, check no
  max neighbors/atom: 2000, page size: 100000
  master list distance cutoff = 2.8
  ghost atom cutoff = 2.8
  binsize = 1.4, bins = 240 240 240
  1 neighbor lists, perpetual/occasional/extra = 1 0 0
  (1) pair lj/cut/kk, perpetual
      attributes: full, newton off, kokkos_device
      pair build: full/bin/kk/device
      stencil: full/bin/3d
      bin: kk/device
Setting up Verlet run ...
  Unit style    : lj
  Current step  : 0
  Time step     : 0.005
Per MPI rank memory allocation (min/avg/max) = 1.584e+04 | 1.584e+04 | 1.584e+04 Mbytes
Step Temp E_pair E_mol TotEng Press 
       0         1.44   -6.7733681            0   -4.6133681   -5.0196693 
     100   0.75941602   -5.7614399            0   -4.6223159   0.19027589 
[rank 0, worker 0] busy ratio: 0.984945
[rank 0, worker 1] busy ratio: 0.755482
[rank 0, worker 2] busy ratio: 0.763722
[rank 0, worker 3] busy ratio: 0.758304
[rank 0, worker 4] busy ratio: 0.760951
[rank 0, worker 5] busy ratio: 0.752531
[rank 0, worker 6] busy ratio: 0.758596
[rank 0, worker 7] busy ratio: 0.766659
[rank 0, worker 8] busy ratio: 0.761008
[rank 0, worker 9] busy ratio: 0.761714
[rank 0, worker 10] busy ratio: 0.769901
[rank 0, worker 11] busy ratio: 0.757654
[rank 0, worker 12] busy ratio: 0.759303
[rank 0, worker 13] busy ratio: 0.767655
[rank 0, worker 14] busy ratio: 0.769195
[rank 0, worker 15] busy ratio: 0.762891
[rank 0, worker 16] busy ratio: 0.758068
[rank 0, worker 17] busy ratio: 0.764955
[rank 0, worker 18] busy ratio: 0.763127
[rank 0, worker 19] busy ratio: 0.759887
[rank 0, worker 20] busy ratio: 0.765246
[rank 0, worker 21] busy ratio: 0.767365
[rank 0, worker 22] busy ratio: 0.758182
[rank 0, worker 23] busy ratio: 0.760716
[rank 0, worker 24] busy ratio: 0.763598
[rank 0, worker 25] busy ratio: 0.764540
[rank 0, worker 26] busy ratio: 0.768488
[rank 0, worker 27] busy ratio: 0.756534
[rank 0, worker 28] busy ratio: 0.744170
[rank 0, worker 29] busy ratio: 0.758832
[rank 0, worker 30] busy ratio: 0.737462
[rank 0, worker 31] busy ratio: 0.764069
[rank 0, worker 32] busy ratio: 0.731748
[rank 0, worker 33] busy ratio: 0.765842
[rank 0, worker 34] busy ratio: 0.719096
[rank 0, worker 35] busy ratio: 0.751648
[rank 0, worker 36] busy ratio: 0.752531
[rank 0, worker 37] busy ratio: 0.745938
[rank 0, worker 38] busy ratio: 0.741465
[rank 0, worker 39] busy ratio: 0.739345
[rank 0, worker 40] busy ratio: 0.753415
[rank 0, worker 41] busy ratio: 0.742581
[rank 0, worker 42] busy ratio: 0.731575
[rank 0, worker 43] busy ratio: 0.754361
[rank 0, worker 44] busy ratio: 0.727808
[rank 0, worker 45] busy ratio: 0.743409
[rank 0, worker 46] busy ratio: 0.748293
[rank 0, worker 47] busy ratio: 0.726673
[rank 0, worker 48] busy ratio: 0.743819
[rank 0, worker 49] busy ratio: 0.753709
[rank 0, worker 50] busy ratio: 0.739520
[rank 0, worker 51] busy ratio: 0.738813
[rank 0, worker 52] busy ratio: 0.749353
[rank 0, worker 53] busy ratio: 0.757005
[rank 0, worker 54] busy ratio: 0.724447
[rank 0, worker 55] busy ratio: 0.772492
[rank 1, worker 0] busy ratio: 0.955498
[rank 1, worker 1] busy ratio: 0.875942
[rank 1, worker 2] busy ratio: 0.874029
[rank 1, worker 3] busy ratio: 0.879209
[rank 1, worker 4] busy ratio: 0.774711
[rank 1, worker 5] busy ratio: 0.751710
[rank 1, worker 6] busy ratio: 0.787094
[rank 1, worker 7] busy ratio: 0.876854
[rank 1, worker 8] busy ratio: 0.879501
[rank 1, worker 9] busy ratio: 0.878766
[rank 1, worker 10] busy ratio: 0.750824
[rank 1, worker 11] busy ratio: 0.759538
[rank 1, worker 12] busy ratio: 0.781073
[rank 1, worker 13] busy ratio: 0.755592
[rank 1, worker 14] busy ratio: 0.878353
[rank 1, worker 15] busy ratio: 0.882796
[rank 1, worker 16] busy ratio: 0.877825
[rank 1, worker 17] busy ratio: 0.880386
[rank 1, worker 18] busy ratio: 0.750000
[rank 1, worker 19] busy ratio: 0.770245
[rank 1, worker 20] busy ratio: 0.755001
[rank 1, worker 21] busy ratio: 0.890066
[rank 1, worker 22] busy ratio: 0.879501
[rank 1, worker 23] busy ratio: 0.888915
[rank 1, worker 24] busy ratio: 0.760358
[rank 1, worker 25] busy ratio: 0.748588
[rank 1, worker 26] busy ratio: 0.737933
[rank 1, worker 27] busy ratio: 0.744350
[rank 1, worker 28] busy ratio: 0.655042
[rank 1, worker 29] busy ratio: 0.634887
[rank 1, worker 30] busy ratio: 0.636535
[rank 1, worker 31] busy ratio: 0.662114
[rank 1, worker 32] busy ratio: 0.662194
[rank 1, worker 33] busy ratio: 0.657405
[rank 1, worker 34] busy ratio: 0.646491
[rank 1, worker 35] busy ratio: 0.656228
[rank 1, worker 36] busy ratio: 0.643362
[rank 1, worker 37] busy ratio: 0.645868
[rank 1, worker 38] busy ratio: 0.664704
[rank 1, worker 39] busy ratio: 0.639595
[rank 1, worker 40] busy ratio: 0.668943
[rank 1, worker 41] busy ratio: 0.643210
[rank 1, worker 42] busy ratio: 0.629621
[rank 1, worker 43] busy ratio: 0.639425
[rank 1, worker 44] busy ratio: 0.630179
[rank 1, worker 45] busy ratio: 0.657802
[rank 1, worker 46] busy ratio: 0.634416
[rank 1, worker 47] busy ratio: 0.650106
[rank 1, worker 48] busy ratio: 0.670669
[rank 1, worker 49] busy ratio: 0.630240
[rank 1, worker 50] busy ratio: 0.659369
[rank 1, worker 51] busy ratio: 0.680951
[rank 1, worker 52] busy ratio: 0.648929
[rank 1, worker 53] busy ratio: 0.653638
[rank 1, worker 54] busy ratio: 0.649953
[rank 1, worker 55] busy ratio: 0.662506
Loop time of 42.4959 on 224 procs for 100 steps with 32000000 atoms

[rank 2, worker 0] busy ratio: 0.980950
[rank 2, worker 1] busy ratio: 0.769793
[rank 2, worker 2] busy ratio: 0.774664
[rank 2, worker 3] busy ratio: 0.776548
[rank 2, worker 4] busy ratio: 0.760301
[rank 2, worker 5] busy ratio: 0.753415
[rank 2, worker 6] busy ratio: 0.747470
[rank 2, worker 7] busy ratio: 0.785075
[rank 2, worker 8] busy ratio: 0.780080
[rank 2, worker 9] busy ratio: 0.773723
[rank 2, worker 10] busy ratio: 0.740052
[rank 2, worker 11] busy ratio: 0.749588
[rank 2, worker 12] busy ratio: 0.751118
[rank 2, worker 13] busy ratio: 0.765717
[rank 2, worker 14] busy ratio: 0.779896
[rank 2, worker 15] busy ratio: 0.771186
[rank 2, worker 16] busy ratio: 0.768778
[rank 2, worker 17] busy ratio: 0.775135
[rank 2, worker 18] busy ratio: 0.751177
[rank 2, worker 19] busy ratio: 0.754002
[rank 2, worker 20] busy ratio: 0.760358
[rank 2, worker 21] busy ratio: 0.785496
[rank 2, worker 22] busy ratio: 0.769539
[rank 2, worker 23] busy ratio: 0.773016
[rank 2, worker 24] busy ratio: 0.745998
[rank 2, worker 25] busy ratio: 0.741055
[rank 2, worker 26] busy ratio: 0.754944
[rank 2, worker 27] busy ratio: 0.754002
[rank 2, worker 28] busy ratio: 0.685586
[rank 2, worker 29] busy ratio: 0.693450
[rank 2, worker 30] busy ratio: 0.701907
[rank 2, worker 31] busy ratio: 0.703555
[rank 2, worker 32] busy ratio: 0.701436
[rank 2, worker 33] busy ratio: 0.723870
[rank 2, worker 34] busy ratio: 0.699246
[rank 2, worker 35] busy ratio: 0.705134
[rank 2, worker 36] busy ratio: 0.709442
[rank 2, worker 37] busy ratio: 0.708333
[rank 2, worker 38] busy ratio: 0.711561
[rank 2, worker 39] busy ratio: 0.705439
[rank 2, worker 40] busy ratio: 0.721686
[rank 2, worker 41] busy ratio: 0.701036
[rank 2, worker 42] busy ratio: 0.692761
[rank 3, worker 0] busy ratio: 0.958343
[rank 3, worker 1] busy ratio: 0.858926
[rank 3, worker 2] busy ratio: 0.861281
[rank 3, worker 3] busy ratio: 0.861785
[rank 3, worker 4] busy ratio: 0.765511
[rank 3, worker 5] busy ratio: 0.776443
[rank 3, worker 6] busy ratio: 0.774034
[rank 3, worker 7] busy ratio: 0.857311
[rank 3, worker 8] busy ratio: 0.867169
[rank 3, worker 9] busy ratio: 0.864311
[rank 3, worker 10] busy ratio: 0.778144
[rank 3, worker 11] busy ratio: 0.780212
[rank 3, worker 12] busy ratio: 0.761366
[rank 3, worker 13] busy ratio: 0.767962
[rank 3, worker 14] busy ratio: 0.867467
[rank 3, worker 15] busy ratio: 0.867436
[rank 3, worker 16] busy ratio: 0.861281
[rank 3, worker 17] busy ratio: 0.870466
[rank 3, worker 18] busy ratio: 0.786337
[rank 3, worker 19] busy ratio: 0.756419
[rank 3, worker 20] busy ratio: 0.769666
[rank 3, worker 21] busy ratio: 0.869350
[rank 3, worker 22] busy ratio: 0.865992
[rank 3, worker 23] busy ratio: 0.863904
[rank 3, worker 24] busy ratio: 0.771133
[rank 3, worker 25] busy ratio: 0.757833
[rank 3, worker 26] busy ratio: 0.741578
[rank 3, worker 27] busy ratio: 0.735751
[rank 3, worker 28] busy ratio: 0.663210
[rank 3, worker 29] busy ratio: 0.662032
[rank 3, worker 30] busy ratio: 0.639727
[rank 3, worker 31] busy ratio: 0.664781
[rank 3, worker 32] busy ratio: 0.650648
[rank 3, worker 33] busy ratio: 0.652133
[rank 3, worker 34] busy ratio: 0.654498
[rank 3, worker 35] busy ratio: 0.665411
[rank 3, worker 36] busy ratio: 0.662506
[rank 3, worker 37] busy ratio: 0.643581
[rank 3, worker 38] busy ratio: 0.663840
[rank 3, worker 39] busy ratio: 0.645146
[rank 3, worker 40] busy ratio: 0.680490
[rank 3, worker 41] busy ratio: 0.632187
[rank 3, worker 42] busy ratio: 0.656537
[rank 3, worker 43] busy ratio: 0.645784
[rank 3, worker 44] busy ratio: 0.617287
[rank 3, worker 45] busy ratio: 0.669336
[rank 3, worker 46] busy ratio: 0.650648
[rank 3, worker 47] busy ratio: 0.665803
[rank 3, worker 48] busy ratio: 0.642487
Performance: 1016.568 tau/day, 2.353 timesteps/s
[rank 2, worker 43] busy ratio: 0.724105
[rank 2, worker 44] busy ratio: 0.710452
[rank 2, worker 45] busy ratio: 0.696798
[rank 2, worker 46] busy ratio: 0.707725
[rank 2, worker 47] busy ratio: 0.702448
[rank 2, worker 48] busy ratio: 0.706381
[rank 2, worker 49] busy ratio: 0.710012
[rank 2, worker 50] busy ratio: 0.705134
[rank 2, worker 51] busy ratio: 0.711394
[rank 2, worker 52] busy ratio: 0.701341
[rank 2, worker 53] busy ratio: 0.707558
[rank 2, worker 54] busy ratio: 0.680395
[rank 2, worker 55] busy ratio: 0.721149
[rank 3, worker 49] busy ratio: 0.657008
[rank 3, worker 50] busy ratio: 0.655911
[rank 3, worker 51] busy ratio: 0.683082
[rank 3, worker 52] busy ratio: 0.679859
[rank 3, worker 53] busy ratio: 0.643110
[rank 3, worker 54] busy ratio: 0.639981
[rank 3, worker 55] busy ratio: 0.701060
4107.5% CPU use with 4 MPI tasks x 56 OpenMP threads

MPI task timing breakdown:
Section |  min time  |  avg time  |  max time  |%varavg| %total
---------------------------------------------------------------
Pair    | 18.686     | 19.5       | 20.727     |  18.1 | 45.89
Neigh   | 3.7791     | 3.8137     | 3.8465     |   1.6 |  8.97
Comm    | 4.667      | 10.021     | 14.346     | 121.1 | 23.58
Output  | 0.0022727  | 0.051589   | 0.074222   |  12.7 |  0.12
Modify  | 0.99708    | 1.1883     | 1.2585     |  10.2 |  2.80
Other   |            | 7.921      |            |       | 18.64

Nlocal:    8e+06 ave 8.00017e+06 max 7.99976e+06 min
Histogram: 1 0 0 0 0 0 2 0 0 1
Nghost:    711029 ave 711274 max 710914 min
Histogram: 2 0 1 0 0 0 0 0 0 1
Neighs:    0 ave 0 max 0 min
Histogram: 4 0 0 0 0 0 0 0 0 0
FullNghs:  6.00869e+08 ave 6.00884e+08 max 6.0085e+08 min
Histogram: 1 0 0 0 0 1 1 0 0 1

Total # of neighbors = 2.40348e+09
Ave neighs/atom = 75.1087
Neighbor list builds = 5
Dangerous builds not checked
Total wall time: 0:00:57
