LAMMPS (7 Aug 2019)
KOKKOS mode is enabled (../kokkos.cpp:85)
  will use up to 0 GPU(s) per node
  using 56 OpenMP thread(s) per MPI task
Lattice spacing in x,y,z = 1.6796 1.6796 1.6796
Created orthogonal box = (0 0 0) to (403.103 403.103 403.103)
  1 by 2 by 2 MPI processor grid
Created 55296000 atoms
  create_atoms CPU = 16.1011 secs
Neighbor list info ...
  update every 20 steps, delay 0 steps, check no
  max neighbors/atom: 2000, page size: 100000
  master list distance cutoff = 2.8
  ghost atom cutoff = 2.8
  binsize = 1.4, bins = 288 288 288
  1 neighbor lists, perpetual/occasional/extra = 1 0 0
  (1) pair lj/cut/kk, perpetual
      attributes: full, newton off, kokkos_device
      pair build: full/bin/kk/device
      stencil: full/bin/3d
      bin: kk/device
Setting up Verlet run ...
  Unit style    : lj
  Current step  : 0
  Time step     : 0.005
Per MPI rank memory allocation (min/avg/max) = 2.709e+04 | 2.709e+04 | 2.709e+04 Mbytes
Step Temp E_pair E_mol TotEng Press 
       0         1.44   -6.7733681            0   -4.6133681   -5.0196693 
     100   0.75942427   -5.7614518            0   -4.6223154   0.19008332 
[rank 3, worker 0] busy ratio: 0.985379
[rank 3, worker 1] busy ratio: 0.793640
[rank 3, worker 2] busy ratio: 0.794985
[rank 3, worker 3] busy ratio: 0.796433
[rank 3, worker 4] busy ratio: 0.739200
[rank 3, worker 5] busy ratio: 0.725956
[rank 3, worker 6] busy ratio: 0.718788
[rank 3, worker 7] busy ratio: 0.808069
[rank 3, worker 8] busy ratio: 0.812575
[rank 3, worker 9] busy ratio: 0.820375
[rank 3, worker 10] busy ratio: 0.725835
[rank 3, worker 11] busy ratio: 0.726371
[rank 3, worker 12] busy ratio: 0.723019
[rank 3, worker 13] busy ratio: 0.720300
[rank 3, worker 14] busy ratio: 0.820241
[rank 3, worker 15] busy ratio: 0.809492
[rank 3, worker 16] busy ratio: 0.822118
[rank 3, worker 17] busy ratio: 0.826005
[rank 3, worker 18] busy ratio: 0.725164
[rank 3, worker 19] busy ratio: 0.718997
[rank 3, worker 20] busy ratio: 0.720837
[rank 3, worker 21] busy ratio: 0.820485
[rank 3, worker 22] busy ratio: 0.824933
[rank 3, worker 23] busy ratio: 0.827725
[rank 3, worker 24] busy ratio: 0.714267
[rank 3, worker 25] busy ratio: 0.713424
[rank 3, worker 26] busy ratio: 0.714171
[rank 3, worker 27] busy ratio: 0.709574
[rank 3, worker 28] busy ratio: 0.691792
[rank 3, worker 29] busy ratio: 0.672613
[rank 3, worker 30] busy ratio: 0.675875
[rank 3, worker 31] busy ratio: 0.671494
[rank 3, worker 32] busy ratio: 0.663806
[rank 3, worker 33] busy ratio: 0.658978
[rank 3, worker 34] busy ratio: 0.670555
[rank 3, worker 35] busy ratio: 0.671672
[rank 3, worker 36] busy ratio: 0.674578
[rank 3, worker 37] busy ratio: 0.671091
[rank 3, worker 38] busy ratio: 0.656296
[rank 3, worker 39] busy ratio: 0.660812
[rank 3, worker 40] busy ratio: 0.663404
[rank 3, worker 41] busy ratio: 0.663940
[rank 3, worker 42] busy ratio: 0.676060
[rank 3, worker 43] busy ratio: 0.673415
[rank 3, worker 44] busy ratio: 0.672432
[rank 3, worker 45] busy ratio: 0.674316
[rank 3, worker 46] busy ratio: 0.663583
[rank 3, worker 47] busy ratio: 0.660856
[rank 3, worker 48] busy ratio: 0.660633
[rank 3, worker 49] busy ratio: 0.673371
[rank 3, worker 50] busy ratio: 0.670465
[rank 3, worker 51] busy ratio: 0.668142
[rank 3, worker 52] busy ratio: 0.663404
[rank 3, worker 53] busy ratio: 0.659292
[rank 3, worker 54] busy ratio: 0.657235
[rank 3, worker 55] busy ratio: 0.617923
[rank 1, worker 0] busy ratio: 0.974514
[rank 1, worker 1] busy ratio: 0.833624
[rank 1, worker 2] busy ratio: 0.851857
[rank 1, worker 3] busy ratio: 0.853063
[rank 1, worker 4] busy ratio: 0.753925
[rank 1, worker 5] busy ratio: 0.744570
[rank 1, worker 6] busy ratio: 0.746883
[rank 1, worker 7] busy ratio: 0.864514
[rank 0, worker 0] busy ratio: 0.982440
[rank 0, worker 1] busy ratio: 0.814119
[rank 0, worker 2] busy ratio: 0.829759
[rank 0, worker 3] busy ratio: 0.838091
[rank 0, worker 4] busy ratio: 0.748189
[rank 0, worker 5] busy ratio: 0.735480
[rank 2, worker 0] busy ratio: 0.983501
[rank 2, worker 1] busy ratio: 0.820268
[rank 2, worker 2] busy ratio: 0.831077
[rank 2, worker 3] busy ratio: 0.840997
[rank 2, worker 4] busy ratio: 0.747014
[rank 2, worker 5] busy ratio: 0.735550
[rank 2, worker 6] busy ratio: 0.726602
[rank 2, worker 7] busy ratio: 0.842740
[rank 2, worker 8] busy ratio: 0.851340
[rank 2, worker 9] busy ratio: 0.855208
[rank 2, worker 10] busy ratio: 0.733137
[rank 2, worker 11] busy ratio: 0.735550
[rank 2, worker 12] busy ratio: 0.729418
[rank 2, worker 13] busy ratio: 0.738303
[rank 2, worker 14] busy ratio: 0.856434
[rank 2, worker 15] busy ratio: 0.854960
[rank 2, worker 16] busy ratio: 0.860705
[rank 2, worker 17] busy ratio: 0.869454
[rank 2, worker 18] busy ratio: 0.737632
[rank 0, worker 6] busy ratio: 0.735953
[rank 0, worker 7] busy ratio: 0.836617
[rank 0, worker 8] busy ratio: 0.840370
[rank 0, worker 9] busy ratio: 0.842916
[rank 0, worker 10] busy ratio: 0.733610
[rank 0, worker 11] busy ratio: 0.738606
[rank 0, worker 12] busy ratio: 0.730088
[rank 0, worker 13] busy ratio: 0.733914
[rank 0, worker 14] busy ratio: 0.853083
[rank 0, worker 15] busy ratio: 0.852969
[rank 1, worker 8] busy ratio: 0.866506
[rank 1, worker 9] busy ratio: 0.873341
[rank 1, worker 10] busy ratio: 0.741620
[rank 1, worker 11] busy ratio: 0.742057
[rank 1, worker 12] busy ratio: 0.737463
[rank 1, worker 13] busy ratio: 0.735487
[rank 1, worker 14] busy ratio: 0.876542
[rank 1, worker 15] busy ratio: 0.879088
[rank 1, worker 16] busy ratio: 0.880027
[rank 1, worker 17] busy ratio: 0.871750
[rank 1, worker 18] busy ratio: 0.742995
[rank 1, worker 19] busy ratio: 0.745576
[rank 1, worker 20] busy ratio: 0.741322
[rank 1, worker 21] busy ratio: 0.879625
[rank 1, worker 22] busy ratio: 0.878300
[rank 2, worker 19] busy ratio: 0.726944
[rank 2, worker 20] busy ratio: 0.741654
[rank 2, worker 21] busy ratio: 0.868784
[rank 2, worker 22] busy ratio: 0.865129
[rank 2, worker 23] busy ratio: 0.873475
[rank 2, worker 24] busy ratio: 0.738303
[rank 2, worker 25] busy ratio: 0.732538
[rank 2, worker 26] busy ratio: 0.742558
[rank 2, worker 27] busy ratio: 0.737463
[rank 2, worker 28] busy ratio: 0.616253
[rank 2, worker 29] busy ratio: 0.573940
[rank 2, worker 30] busy ratio: 0.592061
[rank 2, worker 31] busy ratio: 0.564092
[rank 2, worker 32] busy ratio: 0.579802
[rank 2, worker 33] busy ratio: 0.592195
[rank 2, worker 34] busy ratio: 0.594475
[rank 2, worker 35] busy ratio: 0.562885
[rank 2, worker 36] busy ratio: 0.556792
[rank 2, worker 37] busy ratio: 0.580295
[rank 2, worker 38] busy ratio: 0.568804
[rank 2, worker 39] busy ratio: 0.554050
[rank 2, worker 40] busy ratio: 0.574608
[rank 2, worker 41] busy ratio: 0.571544
[rank 2, worker 42] busy ratio: 0.564337
[rank 2, worker 43] busy ratio: 0.554036
[rank 2, worker 44] busy ratio: 0.548430
[rank 2, worker 45] busy ratio: 0.572195
[rank 0, worker 16] busy ratio: 0.850690
[rank 0, worker 17] busy ratio: 0.853256
[rank 0, worker 18] busy ratio: 0.731832
[rank 1, worker 23] busy ratio: 0.880815
[rank 1, worker 24] busy ratio: 0.742861
[rank 2, worker 46] busy ratio: 0.579166
[rank 2, worker 47] busy ratio: 0.560204
[rank 2, worker 48] busy ratio: 0.555109
[rank 2, worker 49] busy ratio: 0.561679
[rank 0, worker 19] busy ratio: 0.733172
[rank 0, worker 20] busy ratio: 0.733342
[rank 1, worker 25] busy ratio: 0.740850
[rank 1, worker 26] busy ratio: 0.738705
[rank 2, worker 50] busy ratio: 0.556911
[rank 2, worker 51] busy ratio: 0.557120
[rank 2, worker 52] busy ratio: 0.594877
[rank 0, worker 21] busy ratio: 0.856722
[rank 0, worker 22] busy ratio: 0.862716
[rank 1, worker 27] busy ratio: 0.743765
[rank 1, worker 28] busy ratio: 0.619176
[rank 2, worker 53] busy ratio: 0.572291
[rank 2, worker 54] busy ratio: 0.577501
[rank 2, worker 55] busy ratio: 0.565982
[rank 0, worker 23] busy ratio: 0.862332
[rank 0, worker 24] busy ratio: 0.739375
[rank 1, worker 29] busy ratio: 0.578368
[rank 1, worker 30] busy ratio: 0.576774
[rank 0, worker 25] busy ratio: 0.735755
[rank 0, worker 26] busy ratio: 0.733342
[rank 1, worker 31] busy ratio: 0.564092
[rank 1, worker 32] busy ratio: 0.562961
[rank 0, worker 27] busy ratio: 0.736256
[rank 0, worker 28] busy ratio: 0.617296
[rank 1, worker 33] busy ratio: 0.548404
[rank 1, worker 34] busy ratio: 0.548807
[rank 0, worker 29] busy ratio: 0.585457
[rank 0, worker 30] busy ratio: 0.580762
[rank 0, worker 31] busy ratio: 0.575241
[rank 0, worker 32] busy ratio: 0.586239
[rank 0, worker 33] busy ratio: 0.599303
[rank 0, worker 34] busy ratio: 0.586965
[rank 0, worker 35] busy ratio: 0.555109
[rank 1, worker 35] busy ratio: 0.563883
[rank 1, worker 36] busy ratio: 0.552293
[rank 1, worker 37] busy ratio: 0.564932
[rank 1, worker 38] busy ratio: 0.547124
[rank 1, worker 39] busy ratio: 0.552219
[rank 0, worker 36] busy ratio: 0.566506
[rank 0, worker 37] busy ratio: 0.576949
[rank 0, worker 38] busy ratio: 0.591391
[rank 1, worker 40] busy ratio: 0.574283
[rank 1, worker 41] busy ratio: 0.536945
[rank 0, worker 39] busy ratio: 0.561603
[rank 0, worker 40] busy ratio: 0.587021
[rank 1, worker 42] busy ratio: 0.560279
[rank 1, worker 43] busy ratio: 0.544918
[rank 1, worker 44] busy ratio: 0.538080
[rank 0, worker 41] busy ratio: 0.586295
[rank 0, worker 42] busy ratio: 0.564285
[rank 1, worker 45] busy ratio: 0.551280
[rank 1, worker 46] busy ratio: 0.551414
[rank 0, worker 43] busy ratio: 0.550744
[rank 0, worker 44] busy ratio: 0.542968
[rank 1, worker 47] busy ratio: 0.547661
[rank 1, worker 48] busy ratio: 0.548063
[rank 0, worker 45] busy ratio: 0.568861
[rank 0, worker 46] busy ratio: 0.579209
[rank 1, worker 49] busy ratio: 0.550536
[rank 1, worker 50] busy ratio: 0.537802
[rank 0, worker 47] busy ratio: 0.551548
[rank 0, worker 48] busy ratio: 0.548673
[rank 1, worker 51] busy ratio: 0.542359
[rank 1, worker 52] busy ratio: 0.549611
[rank 1, worker 53] busy ratio: 0.528757
[rank 1, worker 54] busy ratio: 0.548123
[rank 1, worker 55] busy ratio: 0.523490
[rank 0, worker 49] busy ratio: 0.573056
[rank 0, worker 50] busy ratio: 0.567100
[rank 0, worker 51] busy ratio: 0.574685
[rank 0, worker 52] busy ratio: 0.596997
[rank 0, worker 53] busy ratio: 0.571812
[rank 0, worker 54] busy ratio: 0.567789
[rank 0, worker 55] busy ratio: 0.545442
Loop time of 74.6153 on 224 procs for 100 steps with 55296000 atoms

Performance: 578.970 tau/day, 1.340 timesteps/s
3827.7% CPU use with 4 MPI tasks x 56 OpenMP threads

MPI task timing breakdown:
Section |  min time  |  avg time  |  max time  |%varavg| %total
---------------------------------------------------------------
Pair    | 50.682     | 55.254     | 57.584     |  36.3 | 74.05
Neigh   | 6.5982     | 6.9494     | 7.5772     |  14.2 |  9.31
Comm    | 5.6682     | 7.4315     | 10.247     |  63.3 |  9.96
Output  | 0.0035828  | 0.12812    | 0.21327    |  21.4 |  0.17
Modify  | 1.6043     | 1.7742     | 2.1778     |  17.6 |  2.38
Other   |            | 3.078      |            |       |  4.12

Nlocal:    1.3824e+07 ave 1.38247e+07 max 1.38235e+07 min
Histogram: 1 1 0 0 0 0 1 0 0 1
Nghost:    1.01912e+06 ave 1.01965e+06 max 1.0184e+06 min
Histogram: 1 0 0 0 1 0 0 0 1 1
Neighs:    0 ave 0 max 0 min
Histogram: 4 0 0 0 0 0 0 0 0 0
FullNghs:  1.0383e+09 ave 1.03837e+09 max 1.03824e+09 min
Histogram: 1 0 1 0 0 1 0 0 0 1

Total # of neighbors = 4.1532e+09
Ave neighs/atom = 75.1085
Neighbor list builds = 5
Dangerous builds not checked
Total wall time: 0:01:38
