LAMMPS (7 Aug 2019)
KOKKOS mode is enabled (../kokkos.cpp:85)
  will use up to 0 GPU(s) per node
  using 56 OpenMP thread(s) per MPI task
Lattice spacing in x,y,z = 1.6796 1.6796 1.6796
Created orthogonal box = (0 0 0) to (268.735 268.735 268.735)
  1 by 2 by 2 MPI processor grid
Created 16384000 atoms
  create_atoms CPU = 6.52978 secs
Neighbor list info ...
  update every 20 steps, delay 0 steps, check no
  max neighbors/atom: 2000, page size: 100000
  master list distance cutoff = 2.8
  ghost atom cutoff = 2.8
  binsize = 1.4, bins = 192 192 192
  1 neighbor lists, perpetual/occasional/extra = 1 0 0
  (1) pair lj/cut/kk, perpetual
      attributes: full, newton off, kokkos_device
      pair build: full/bin/kk/device
      stencil: full/bin/3d
      bin: kk/device
Setting up Verlet run ...
  Unit style    : lj
  Current step  : 0
  Time step     : 0.005
Per MPI rank memory allocation (min/avg/max) = 8306 | 8306 | 8306 Mbytes
Step Temp E_pair E_mol TotEng Press 
       0         1.44   -6.7733681            0   -4.6133682   -5.0196693 
     100   0.75918554   -5.7610896            0   -4.6223114   0.19195085 
[rank 0, worker 0] busy ratio: 0.976051
[rank 0, worker 1] busy ratio: 0.792222
[rank 0, worker 2] busy ratio: 0.793710
[rank 3, worker 0] busy ratio: 0.961600
[rank 3, worker 1] busy ratio: 0.848825
[rank 3, worker 2] busy ratio: 0.843650
[rank 3, worker 3] busy ratio: 0.845867
[rank 3, worker 4] busy ratio: 0.830843
[rank 3, worker 5] busy ratio: 0.814933
[rank 3, worker 6] busy ratio: 0.813867
[rank 3, worker 7] busy ratio: 0.842049
[rank 3, worker 8] busy ratio: 0.845416
[rank 3, worker 9] busy ratio: 0.846933
[rank 3, worker 10] busy ratio: 0.820704
[rank 3, worker 11] busy ratio: 0.822839
[rank 3, worker 12] busy ratio: 0.817164
[rank 3, worker 13] busy ratio: 0.824533
[rank 3, worker 14] busy ratio: 0.850293
[rank 3, worker 15] busy ratio: 0.845949
[rank 3, worker 16] busy ratio: 0.840618
[rank 3, worker 17] busy ratio: 0.844350
[rank 3, worker 18] busy ratio: 0.818473
[rank 3, worker 19] busy ratio: 0.827200
[rank 1, worker 0] busy ratio: 0.961129
[rank 1, worker 1] busy ratio: 0.834843
[rank 1, worker 2] busy ratio: 0.846031
[rank 1, worker 3] busy ratio: 0.832801
[rank 1, worker 4] busy ratio: 0.809168
[rank 1, worker 5] busy ratio: 0.816196
[rank 1, worker 6] busy ratio: 0.806400
[rank 1, worker 7] busy ratio: 0.838126
[rank 1, worker 8] busy ratio: 0.839638
[rank 1, worker 9] busy ratio: 0.839638
[rank 1, worker 10] busy ratio: 0.807036
[rank 1, worker 11] busy ratio: 0.815032
[rank 0, worker 3] busy ratio: 0.786475
[rank 0, worker 4] busy ratio: 0.793287
[rank 0, worker 5] busy ratio: 0.794039
[rank 0, worker 6] busy ratio: 0.796592
[rank 0, worker 7] busy ratio: 0.800426
[rank 3, worker 20] busy ratio: 0.824094
[rank 3, worker 21] busy ratio: 0.846933
[rank 3, worker 22] busy ratio: 0.850053
[rank 3, worker 23] busy ratio: 0.845867
[rank 3, worker 24] busy ratio: 0.819200
[rank 3, worker 25] busy ratio: 0.814933
[rank 3, worker 26] busy ratio: 0.817600
[rank 3, worker 27] busy ratio: 0.823028
[rank 3, worker 28] busy ratio: 0.752533
[rank 3, worker 29] busy ratio: 0.741214
[rank 3, worker 30] busy ratio: 0.762387
[rank 3, worker 31] busy ratio: 0.741867
[rank 3, worker 32] busy ratio: 0.764392
[rank 3, worker 33] busy ratio: 0.755200
[rank 3, worker 34] busy ratio: 0.758125
[rank 3, worker 35] busy ratio: 0.753863
[rank 3, worker 36] busy ratio: 0.764392
[rank 3, worker 37] busy ratio: 0.763046
[rank 3, worker 38] busy ratio: 0.751066
[rank 3, worker 39] busy ratio: 0.757996
[rank 3, worker 40] busy ratio: 0.762513
[rank 3, worker 41] busy ratio: 0.773575
[rank 3, worker 42] busy ratio: 0.738667
[rank 3, worker 43] busy ratio: 0.770789
[rank 3, worker 44] busy ratio: 0.752533
[rank 3, worker 45] busy ratio: 0.749467
[rank 3, worker 46] busy ratio: 0.759723
[rank 3, worker 47] busy ratio: 0.771200
[rank 3, worker 48] busy ratio: 0.772800
[rank 3, worker 49] busy ratio: 0.753994
[rank 3, worker 50] busy ratio: 0.768943
[rank 3, worker 51] busy ratio: 0.769600
[rank 3, worker 52] busy ratio: 0.769723
[rank 3, worker 53] busy ratio: 0.773746
[rank 3, worker 54] busy ratio: 0.762387
[rank 3, worker 55] busy ratio: 0.724653
[rank 1, worker 12] busy ratio: 0.806503
[rank 1, worker 13] busy ratio: 0.809270
[rank 1, worker 14] busy ratio: 0.846564
[rank 1, worker 15] busy ratio: 0.839191
[rank 1, worker 16] busy ratio: 0.836974
[rank 1, worker 17] busy ratio: 0.835019
[rank 1, worker 18] busy ratio: 0.817794
[rank 1, worker 19] busy ratio: 0.812367
[rank 1, worker 20] busy ratio: 0.816294
[rank 1, worker 21] busy ratio: 0.838572
[rank 1, worker 22] busy ratio: 0.836528
[rank 1, worker 23] busy ratio: 0.839723
[rank 1, worker 24] busy ratio: 0.814065
[rank 1, worker 25] busy ratio: 0.815229
[rank 1, worker 26] busy ratio: 0.809168
[rank 1, worker 27] busy ratio: 0.804904
[rank 1, worker 28] busy ratio: 0.737207
[rank 1, worker 29] busy ratio: 0.744806
[rank 1, worker 30] busy ratio: 0.746674
[rank 1, worker 31] busy ratio: 0.723110
[rank 1, worker 32] busy ratio: 0.737067
[rank 1, worker 33] busy ratio: 0.744670
[rank 1, worker 34] busy ratio: 0.729744
[rank 1, worker 35] busy ratio: 0.732162
[rank 1, worker 36] busy ratio: 0.740149
[rank 1, worker 37] busy ratio: 0.733617
[rank 0, worker 8] busy ratio: 0.798297
[rank 0, worker 9] busy ratio: 0.799787
[rank 0, worker 10] busy ratio: 0.798722
[rank 1, worker 38] busy ratio: 0.729888
[rank 1, worker 39] busy ratio: 0.729499
[rank 2, worker 0] busy ratio: 0.961620
[rank 2, worker 1] busy ratio: 0.837333
[rank 2, worker 2] busy ratio: 0.842834
[rank 2, worker 3] busy ratio: 0.836354
[rank 2, worker 4] busy ratio: 0.816729
[rank 2, worker 5] busy ratio: 0.819393
[rank 2, worker 6] busy ratio: 0.819489
[rank 2, worker 7] busy ratio: 0.838126
[rank 2, worker 8] busy ratio: 0.830490
[rank 0, worker 11] busy ratio: 0.799255
[rank 0, worker 12] busy ratio: 0.797657
[rank 0, worker 13] busy ratio: 0.793617
[rank 1, worker 40] busy ratio: 0.739478
[rank 1, worker 41] busy ratio: 0.738412
[rank 0, worker 14] busy ratio: 0.794995
[rank 0, worker 15] busy ratio: 0.786056
[rank 1, worker 42] busy ratio: 0.728967
[rank 1, worker 43] busy ratio: 0.722962
[rank 1, worker 44] busy ratio: 0.722429
[rank 2, worker 9] busy ratio: 0.838658
[rank 2, worker 10] busy ratio: 0.811934
[rank 2, worker 11] busy ratio: 0.811070
[rank 2, worker 12] busy ratio: 0.825439
[rank 2, worker 13] busy ratio: 0.823216
[rank 2, worker 14] busy ratio: 0.837420
[rank 2, worker 15] busy ratio: 0.838039
[rank 2, worker 16] busy ratio: 0.839723
[rank 2, worker 17] busy ratio: 0.838298
[rank 2, worker 18] busy ratio: 0.814263
[rank 2, worker 19] busy ratio: 0.817359
[rank 2, worker 20] busy ratio: 0.824814
[rank 2, worker 21] busy ratio: 0.838744
[rank 2, worker 22] busy ratio: 0.840341
[rank 2, worker 23] busy ratio: 0.843983
[rank 2, worker 24] busy ratio: 0.817891
[rank 2, worker 25] busy ratio: 0.820745
[rank 2, worker 26] busy ratio: 0.818424
[rank 2, worker 27] busy ratio: 0.818520
[rank 2, worker 28] busy ratio: 0.763859
[rank 2, worker 29] busy ratio: 0.750533
[rank 2, worker 30] busy ratio: 0.770789
[rank 2, worker 31] busy ratio: 0.740011
[rank 2, worker 32] busy ratio: 0.773987
[rank 2, worker 33] busy ratio: 0.767838
[rank 2, worker 34] busy ratio: 0.773695
[rank 0, worker 16] busy ratio: 0.796060
[rank 0, worker 17] busy ratio: 0.796277
[rank 0, worker 18] busy ratio: 0.786170
[rank 1, worker 45] busy ratio: 0.720447
[rank 1, worker 46] busy ratio: 0.740405
[rank 2, worker 35] busy ratio: 0.756656
[rank 2, worker 36] busy ratio: 0.755994
[rank 2, worker 37] busy ratio: 0.751864
[rank 2, worker 38] busy ratio: 0.763985
[rank 0, worker 19] busy ratio: 0.794353
[rank 0, worker 20] busy ratio: 0.778723
[rank 1, worker 47] busy ratio: 0.737880
[rank 1, worker 48] busy ratio: 0.736030
[rank 1, worker 49] busy ratio: 0.708422
[rank 1, worker 50] busy ratio: 0.729888
[rank 1, worker 51] busy ratio: 0.719083
[rank 2, worker 39] busy ratio: 0.767838
[rank 2, worker 40] busy ratio: 0.750000
[rank 0, worker 21] busy ratio: 0.785942
[rank 0, worker 22] busy ratio: 0.782863
[rank 0, worker 23] busy ratio: 0.791378
[rank 1, worker 52] busy ratio: 0.738527
[rank 1, worker 53] busy ratio: 0.733333
[rank 1, worker 54] busy ratio: 0.732162
[rank 2, worker 41] busy ratio: 0.767962
[rank 2, worker 42] busy ratio: 0.744273
[rank 0, worker 24] busy ratio: 0.784460
[rank 0, worker 25] busy ratio: 0.796060
[rank 0, worker 26] busy ratio: 0.777246
[rank 1, worker 55] busy ratio: 0.660267
[rank 2, worker 43] busy ratio: 0.760383
[rank 2, worker 44] busy ratio: 0.746269
[rank 2, worker 45] busy ratio: 0.739872
[rank 2, worker 46] busy ratio: 0.754395
[rank 2, worker 47] busy ratio: 0.767838
[rank 0, worker 27] busy ratio: 0.780734
[rank 0, worker 28] busy ratio: 0.797657
[rank 2, worker 48] busy ratio: 0.758657
[rank 2, worker 49] busy ratio: 0.761981
[rank 0, worker 29] busy ratio: 0.795636
[rank 0, worker 30] busy ratio: 0.802982
[rank 0, worker 31] busy ratio: 0.793195
[rank 2, worker 50] busy ratio: 0.751996
[rank 2, worker 51] busy ratio: 0.764236
[rank 0, worker 32] busy ratio: 0.791267
[rank 0, worker 33] busy ratio: 0.796700
[rank 2, worker 52] busy ratio: 0.754395
[rank 2, worker 53] busy ratio: 0.763452
[rank 0, worker 34] busy ratio: 0.795104
[rank 0, worker 35] busy ratio: 0.793507
[rank 0, worker 36] busy ratio: 0.800852
[rank 2, worker 54] busy ratio: 0.760916
[rank 2, worker 55] busy ratio: 0.691200
[rank 0, worker 37] busy ratio: 0.791267
[rank 0, worker 38] busy ratio: 0.803619
[rank 0, worker 39] busy ratio: 0.786247
[rank 0, worker 40] busy ratio: 0.790846
[rank 0, worker 41] busy ratio: 0.798297
[rank 0, worker 42] busy ratio: 0.789558
[rank 0, worker 43] busy ratio: 0.792222
[rank 0, worker 44] busy ratio: 0.778488
[rank 0, worker 45] busy ratio: 0.788072
[rank 0, worker 46] busy ratio: 0.790091
[rank 0, worker 47] busy ratio: 0.799574
[rank 0, worker 48] busy ratio: 0.777955
[rank 0, worker 49] busy ratio: 0.805748
[rank 0, worker 50] busy ratio: 0.778488
[rank 0, worker 51] busy ratio: 0.799361
[rank 0, worker 52] busy ratio: 0.787540
[rank 0, worker 53] busy ratio: 0.780501
[rank 0, worker 54] busy ratio: 0.790735
[rank 0, worker 55] busy ratio: 0.765991
Loop time of 18.7908 on 224 procs for 100 steps with 16384000 atoms

Performance: 2299.001 tau/day, 5.322 timesteps/s
4390.9% CPU use with 4 MPI tasks x 56 OpenMP threads

MPI task timing breakdown:
Section |  min time  |  avg time  |  max time  |%varavg| %total
---------------------------------------------------------------
Pair    | 9.5631     | 9.8702     | 10.479     |  11.5 | 52.53
Neigh   | 1.8361     | 1.8999     | 1.9866     |   4.3 | 10.11
Comm    | 2.9227     | 3.2283     | 3.8172     |  19.9 | 17.18
Output  | 0.0012166  | 0.027594   | 0.054098   |  14.7 |  0.15
Modify  | 0.52711    | 0.57883    | 0.64203    |   6.2 |  3.08
Other   |            | 3.186      |            |       | 16.96

Nlocal:    4.096e+06 ave 4.09657e+06 max 4.09544e+06 min
Histogram: 1 0 0 1 0 0 1 0 0 1
Nghost:    458178 ave 458566 max 457741 min
Histogram: 1 0 0 0 1 0 0 1 0 1
Neighs:    0 ave 0 max 0 min
Histogram: 4 0 0 0 0 0 0 0 0 0
FullNghs:  3.07645e+08 ave 3.07688e+08 max 3.07588e+08 min
Histogram: 1 0 0 0 1 0 0 0 1 1

Total # of neighbors = 1230581798
Ave neighs/atom = 75.1088
Neighbor list builds = 5
Dangerous builds not checked
Total wall time: 0:00:28
