LAMMPS (7 Aug 2019)
KOKKOS mode is enabled (../kokkos.cpp:85)
  will use up to 0 GPU(s) per node
  using 56 OpenMP thread(s) per MPI task
Lattice spacing in x,y,z = 1.6796 1.6796 1.6796
Created orthogonal box = (0 0 0) to (268.735 268.735 268.735)
  1 by 2 by 2 MPI processor grid
Created 16384000 atoms
  create_atoms CPU = 6.76045 secs
Neighbor list info ...
  update every 20 steps, delay 0 steps, check no
  max neighbors/atom: 2000, page size: 100000
  master list distance cutoff = 2.8
  ghost atom cutoff = 2.8
  binsize = 1.4, bins = 192 192 192
  1 neighbor lists, perpetual/occasional/extra = 1 0 0
  (1) pair lj/cut/kk, perpetual
      attributes: full, newton off, kokkos_device
      pair build: full/bin/kk/device
      stencil: full/bin/3d
      bin: kk/device
Setting up Verlet run ...
  Unit style    : lj
  Current step  : 0
  Time step     : 0.005
Per MPI rank memory allocation (min/avg/max) = 8306 | 8306 | 8306 Mbytes
Step Temp E_pair E_mol TotEng Press 
       0         1.44   -6.7733681            0   -4.6133682   -5.0196693 
     100   0.75918554   -5.7610896            0   -4.6223114   0.19195085 
[rank 0, worker 0] busy ratio: 0.972996
[rank 0, worker 1] busy ratio: 0.777253
[rank 0, worker 2] busy ratio: 0.779494
[rank 0, worker 3] busy ratio: 0.783541
[rank 0, worker 4] busy ratio: 0.792631
[rank 0, worker 5] busy ratio: 0.795455
[rank 0, worker 6] busy ratio: 0.796399
[rank 0, worker 7] busy ratio: 0.798456
[rank 0, worker 8] busy ratio: 0.793310
[rank 0, worker 9] busy ratio: 0.802660
[rank 0, worker 10] busy ratio: 0.792453
[rank 0, worker 11] busy ratio: 0.789970
[rank 0, worker 12] busy ratio: 0.791166
[rank 0, worker 13] busy ratio: 0.784213
[rank 0, worker 14] busy ratio: 0.776062
[rank 0, worker 15] busy ratio: 0.781732
[rank 0, worker 16] busy ratio: 0.797257
[rank 0, worker 17] busy ratio: 0.779254
[rank 0, worker 18] busy ratio: 0.797599
[rank 0, worker 19] busy ratio: 0.781732
[rank 3, worker 0] busy ratio: 0.945111
[rank 3, worker 1] busy ratio: 0.861980
[rank 3, worker 2] busy ratio: 0.863325
[rank 3, worker 3] busy ratio: 0.868466
[rank 3, worker 4] busy ratio: 0.842692
[rank 3, worker 5] busy ratio: 0.836621
[rank 3, worker 6] busy ratio: 0.840480
[rank 3, worker 7] busy ratio: 0.862350
[rank 3, worker 8] busy ratio: 0.862468
[rank 3, worker 9] busy ratio: 0.863266
[rank 3, worker 10] busy ratio: 0.833262
[rank 3, worker 11] busy ratio: 0.835834
[rank 3, worker 12] busy ratio: 0.848693
[rank 3, worker 13] busy ratio: 0.841902
[rank 3, worker 14] busy ratio: 0.866267
[rank 3, worker 15] busy ratio: 0.874411
[rank 3, worker 16] busy ratio: 0.871520
[rank 3, worker 17] busy ratio: 0.872805
[rank 3, worker 18] busy ratio: 0.848264
[rank 3, worker 19] busy ratio: 0.844045
[rank 3, worker 20] busy ratio: 0.829477
[rank 3, worker 21] busy ratio: 0.877892
[rank 3, worker 22] busy ratio: 0.870124
[rank 3, worker 23] busy ratio: 0.881320
[rank 3, worker 24] busy ratio: 0.837189
[rank 3, worker 25] busy ratio: 0.842196
[rank 3, worker 26] busy ratio: 0.839691
[rank 3, worker 27] busy ratio: 0.828192
[rank 3, worker 28] busy ratio: 0.679828
[rank 3, worker 29] busy ratio: 0.675664
[rank 3, worker 30] busy ratio: 0.693231
[rank 3, worker 31] busy ratio: 0.646958
[rank 3, worker 32] busy ratio: 0.688223
[rank 3, worker 33] busy ratio: 0.664524
[rank 3, worker 34] busy ratio: 0.679229
[rank 3, worker 35] busy ratio: 0.672089
[rank 3, worker 36] busy ratio: 0.684233
[rank 3, worker 37] busy ratio: 0.686216
[rank 3, worker 38] busy ratio: 0.663527
[rank 3, worker 39] busy ratio: 0.688651
[rank 3, worker 40] busy ratio: 0.680223
[rank 3, worker 41] busy ratio: 0.684662
[rank 3, worker 42] busy ratio: 0.671520
[rank 3, worker 43] busy ratio: 0.680514
[rank 3, worker 44] busy ratio: 0.666809
[rank 3, worker 45] busy ratio: 0.679366
[rank 3, worker 46] busy ratio: 0.686938
[rank 0, worker 20] busy ratio: 0.785255
[rank 0, worker 21] busy ratio: 0.782590
[rank 3, worker 47] busy ratio: 0.690364
[rank 3, worker 48] busy ratio: 0.703767
[rank 3, worker 49] busy ratio: 0.672377
[rank 3, worker 50] busy ratio: 0.695503
[rank 3, worker 51] busy ratio: 0.679657
[rank 3, worker 52] busy ratio: 0.684503
[rank 3, worker 53] busy ratio: 0.682655
[rank 3, worker 54] busy ratio: 0.669949
[rank 3, worker 55] busy ratio: 0.628106
[rank 1, worker 0] busy ratio: 0.931271
[rank 1, worker 1] busy ratio: 0.861611
[rank 1, worker 2] busy ratio: 0.867981
[rank 1, worker 3] busy ratio: 0.871465
[rank 1, worker 4] busy ratio: 0.827542
[rank 1, worker 5] busy ratio: 0.838336
[rank 1, worker 6] busy ratio: 0.837977
[rank 1, worker 7] busy ratio: 0.873662
[rank 1, worker 8] busy ratio: 0.867238
[rank 1, worker 9] busy ratio: 0.872805
[rank 1, worker 10] busy ratio: 0.836262
[rank 1, worker 11] busy ratio: 0.837120
[rank 1, worker 12] busy ratio: 0.834119
[rank 1, worker 13] busy ratio: 0.832333
[rank 1, worker 14] busy ratio: 0.870608
[rank 1, worker 15] busy ratio: 0.863266
[rank 1, worker 16] busy ratio: 0.871410
[rank 1, worker 17] busy ratio: 0.878425
[rank 1, worker 18] busy ratio: 0.835693
[rank 1, worker 19] busy ratio: 0.824764
[rank 1, worker 20] busy ratio: 0.825975
[rank 1, worker 21] busy ratio: 0.880411
[rank 1, worker 22] busy ratio: 0.875803
[rank 1, worker 23] busy ratio: 0.874893
[rank 1, worker 24] busy ratio: 0.835118
[rank 1, worker 25] busy ratio: 0.825268
[rank 1, worker 26] busy ratio: 0.829760
[rank 1, worker 27] busy ratio: 0.831976
[rank 1, worker 28] busy ratio: 0.688278
[rank 1, worker 29] busy ratio: 0.682969
[rank 1, worker 30] busy ratio: 0.684955
[rank 1, worker 31] busy ratio: 0.661242
[rank 1, worker 32] busy ratio: 0.663239
[rank 1, worker 33] busy ratio: 0.689537
[rank 1, worker 34] busy ratio: 0.664524
[rank 1, worker 35] busy ratio: 0.673662
[rank 1, worker 36] busy ratio: 0.680961
[rank 1, worker 37] busy ratio: 0.687955
[rank 1, worker 38] busy ratio: 0.666238
[rank 1, worker 39] busy ratio: 0.690691
[rank 1, worker 40] busy ratio: 0.682519
[rank 1, worker 41] busy ratio: 0.704623
[rank 1, worker 42] busy ratio: 0.654522
[rank 1, worker 43] busy ratio: 0.688813
[rank 1, worker 44] busy ratio: 0.661380
[rank 1, worker 45] busy ratio: 0.678373
[rank 1, worker 46] busy ratio: 0.683240
[rank 1, worker 47] busy ratio: 0.687955
[rank 0, worker 22] busy ratio: 0.770351
[rank 0, worker 23] busy ratio: 0.792542
[rank 0, worker 24] busy ratio: 0.769494
[rank 0, worker 25] busy ratio: 0.776587
[rank 0, worker 26] busy ratio: 0.774539
[rank 0, worker 27] busy ratio: 0.779872
[rank 0, worker 28] busy ratio: 0.773917
[rank 0, worker 29] busy ratio: 0.787645
[rank 0, worker 30] busy ratio: 0.786787
[rank 0, worker 31] busy ratio: 0.780017
[rank 0, worker 32] busy ratio: 0.783112
[rank 0, worker 33] busy ratio: 0.790150
[rank 0, worker 34] busy ratio: 0.777015
[rank 0, worker 35] busy ratio: 0.765866
[rank 0, worker 36] busy ratio: 0.797599
[rank 0, worker 37] busy ratio: 0.765009
[rank 0, worker 38] busy ratio: 0.780540
[rank 0, worker 39] busy ratio: 0.754717
[rank 1, worker 48] busy ratio: 0.683376
[rank 1, worker 49] busy ratio: 0.659091
[rank 1, worker 50] busy ratio: 0.697256
[rank 1, worker 51] busy ratio: 0.690231
[rank 1, worker 52] busy ratio: 0.671092
[rank 1, worker 53] busy ratio: 0.681799
[rank 1, worker 54] busy ratio: 0.676521
[rank 1, worker 55] busy ratio: 0.638079
[rank 0, worker 40] busy ratio: 0.776254
[rank 0, worker 41] busy ratio: 0.791935
[rank 0, worker 42] busy ratio: 0.767153
[rank 0, worker 43] busy ratio: 0.781974
[rank 0, worker 44] busy ratio: 0.768868
[rank 0, worker 45] busy ratio: 0.740773
[rank 0, worker 46] busy ratio: 0.767482
[rank 0, worker 47] busy ratio: 0.794685
[rank 0, worker 48] busy ratio: 0.755251
[rank 0, worker 49] busy ratio: 0.799486
[rank 0, worker 50] busy ratio: 0.745501
[rank 0, worker 51] busy ratio: 0.777968
[rank 0, worker 52] busy ratio: 0.770351
[rank 0, worker 53] busy ratio: 0.762966
[rank 0, worker 54] busy ratio: 0.777444
[rank 0, worker 55] busy ratio: 0.786541
Loop time of 23.3545 on 224 procs for 100 steps with 16384000 atoms

[rank 2, worker 0] busy ratio: 0.939537
[rank 2, worker 1] busy ratio: 0.840909
[rank 2, worker 2] busy ratio: 0.844406
[rank 2, worker 3] busy ratio: 0.856346
[rank 2, worker 4] busy ratio: 0.808931
[rank 2, worker 5] busy ratio: 0.821536
[rank 2, worker 6] busy ratio: 0.813385
[rank 2, worker 7] busy ratio: 0.852122
[rank 2, worker 8] busy ratio: 0.858062
[rank 2, worker 9] busy ratio: 0.856103
[rank 2, worker 10] busy ratio: 0.810892
[rank 2, worker 11] busy ratio: 0.821612
[rank 2, worker 12] busy ratio: 0.828829
[rank 2, worker 13] busy ratio: 0.831832
[rank 2, worker 14] busy ratio: 0.853533
[rank 2, worker 15] busy ratio: 0.851757
Performance: 1849.752 tau/day, 4.282 timesteps/s
[rank 2, worker 16] busy ratio: 0.861552
[rank 2, worker 17] busy ratio: 0.856470
[rank 2, worker 18] busy ratio: 0.828902
[rank 2, worker 19] busy ratio: 0.836761
[rank 2, worker 20] busy ratio: 0.827039
[rank 2, worker 21] busy ratio: 0.852614
[rank 2, worker 22] busy ratio: 0.852614
[rank 2, worker 23] busy ratio: 0.862838
[rank 2, worker 24] busy ratio: 0.825826
[rank 2, worker 25] busy ratio: 0.842489
[rank 2, worker 26] busy ratio: 0.830974
[rank 2, worker 27] busy ratio: 0.822041
[rank 2, worker 28] busy ratio: 0.674109
[rank 2, worker 29] busy ratio: 0.696436
[rank 2, worker 30] busy ratio: 0.714837
[rank 2, worker 31] busy ratio: 0.681818
[rank 2, worker 32] busy ratio: 0.700386
[rank 2, worker 33] busy ratio: 0.709138
[rank 2, worker 34] busy ratio: 0.700558
[rank 2, worker 35] busy ratio: 0.686964
[rank 2, worker 36] busy ratio: 0.709262
[rank 2, worker 37] busy ratio: 0.691120
[rank 2, worker 38] busy ratio: 0.713979
[rank 2, worker 39] busy ratio: 0.696827
[rank 2, worker 40] busy ratio: 0.688117
4267.8% CPU use with 4 MPI tasks x 56 OpenMP threads
[rank 2, worker 41] busy ratio: 0.711159
[rank 2, worker 42] busy ratio: 0.678679
[rank 2, worker 43] busy ratio: 0.712693
[rank 2, worker 44] busy ratio: 0.696697

MPI task timing breakdown:
Section |  min time  |  avg time  |  max time  |%varavg| %total
---------------------------------------------------------------
[rank 2, worker 45] busy ratio: 0.672813
[rank 2, worker 46] busy ratio: 0.705150
[rank 2, worker 47] busy ratio: 0.731446
Pair    | 10.584     | 11.264     | 12.796     |  26.6 | 48.23
[rank 2, worker 48] busy ratio: 0.696827
[rank 2, worker 49] busy ratio: 0.723961
[rank 2, worker 50] busy ratio: 0.692967
Neigh   | 1.8508     | 1.902      | 1.9877     |   3.8 |  8.14
[rank 2, worker 51] busy ratio: 0.729961
[rank 2, worker 52] busy ratio: 0.700686
[rank 2, worker 53] busy ratio: 0.724153
[rank 2, worker 54] busy ratio: 0.715144
[rank 2, worker 55] busy ratio: 0.663235
Comm    | 2.592      | 4.2127     | 5.3967     |  51.8 | 18.04
Output  | 0.0013081  | 0.024332   | 0.054245   |  13.4 |  0.10
Modify  | 0.51121    | 0.56922    | 0.66037    |   7.4 |  2.44
Other   |            | 5.382      |            |       | 23.05

Nlocal:    4.096e+06 ave 4.09657e+06 max 4.09544e+06 min
Histogram: 1 0 0 1 0 0 1 0 0 1
Nghost:    458178 ave 458566 max 457741 min
Histogram: 1 0 0 0 1 0 0 1 0 1
Neighs:    0 ave 0 max 0 min
Histogram: 4 0 0 0 0 0 0 0 0 0
FullNghs:  3.07645e+08 ave 3.07688e+08 max 3.07588e+08 min
Histogram: 1 0 0 0 1 0 0 0 1 1

Total # of neighbors = 1230581798
Ave neighs/atom = 75.1088
Neighbor list builds = 5
Dangerous builds not checked
Total wall time: 0:00:33
