LAMMPS (7 Aug 2019)
KOKKOS mode is enabled (../kokkos.cpp:85)
  will use up to 0 GPU(s) per node
  using 56 OpenMP thread(s) per MPI task
Lattice spacing in x,y,z = 1.6796 1.6796 1.6796
Created orthogonal box = (0 0 0) to (201.552 201.552 201.552)
  1 by 2 by 2 MPI processor grid
Created 6912000 atoms
  create_atoms CPU = 3.50835 secs
Neighbor list info ...
  update every 20 steps, delay 0 steps, check no
  max neighbors/atom: 2000, page size: 100000
  master list distance cutoff = 2.8
  ghost atom cutoff = 2.8
  binsize = 1.4, bins = 144 144 144
  1 neighbor lists, perpetual/occasional/extra = 1 0 0
  (1) pair lj/cut/kk, perpetual
      attributes: full, newton off, kokkos_device
      pair build: full/bin/kk/device
      stencil: full/bin/3d
      bin: kk/device
Setting up Verlet run ...
  Unit style    : lj
  Current step  : 0
  Time step     : 0.005
Per MPI rank memory allocation (min/avg/max) = 3650 | 3650 | 3650 Mbytes
Step Temp E_pair E_mol TotEng Press 
       0         1.44   -6.7733681            0   -4.6133684   -5.0196694 
     100   0.75929363   -5.7612508            0   -4.6223105   0.19076255 
[rank 3, worker 0] busy ratio: 0.991889
[rank 3, worker 1] busy ratio: 0.890951
[rank 3, worker 2] busy ratio: 0.881533
[rank 3, worker 3] busy ratio: 0.881533
[rank 3, worker 4] busy ratio: 0.864111
[rank 3, worker 5] busy ratio: 0.833721
[rank 3, worker 6] busy ratio: 0.850348
[rank 3, worker 7] busy ratio: 0.887340
[rank 3, worker 8] busy ratio: 0.887471
[rank 3, worker 9] busy ratio: 0.886047
[rank 3, worker 10] busy ratio: 0.852668
[rank 3, worker 11] busy ratio: 0.840883
[rank 3, worker 12] busy ratio: 0.839721
[rank 3, worker 13] busy ratio: 0.831395
[rank 3, worker 14] busy ratio: 0.883721
[rank 3, worker 15] busy ratio: 0.882695
[rank 3, worker 16] busy ratio: 0.879210
[rank 3, worker 17] busy ratio: 0.882695
[rank 3, worker 18] busy ratio: 0.858469
[rank 1, worker 0] busy ratio: 0.990698
[rank 1, worker 1] busy ratio: 0.923256
[rank 1, worker 2] busy ratio: 0.937355
[rank 1, worker 3] busy ratio: 0.936195
[rank 1, worker 4] busy ratio: 0.858304
[rank 1, worker 5] busy ratio: 0.850174
[rank 1, worker 6] busy ratio: 0.868757
[rank 1, worker 7] busy ratio: 0.930394
[rank 1, worker 8] busy ratio: 0.923434
[rank 3, worker 19] busy ratio: 0.840698
[rank 3, worker 20] busy ratio: 0.844186
[rank 3, worker 21] busy ratio: 0.883721
[rank 0, worker 0] busy ratio: 0.993056
[rank 0, worker 1] busy ratio: 0.932715
[rank 0, worker 2] busy ratio: 0.932715
[rank 0, worker 3] busy ratio: 0.932793
[rank 2, worker 0] busy ratio: 0.993039
[rank 2, worker 1] busy ratio: 0.901392
[rank 2, worker 2] busy ratio: 0.906032
[rank 2, worker 3] busy ratio: 0.907193
[rank 2, worker 4] busy ratio: 0.865429
[rank 2, worker 5] busy ratio: 0.851680
[rank 2, worker 6] busy ratio: 0.851680
[rank 2, worker 7] busy ratio: 0.906032
[rank 2, worker 8] busy ratio: 0.906032
[rank 2, worker 9] busy ratio: 0.909408
[rank 1, worker 9] busy ratio: 0.935035
[rank 1, worker 10] busy ratio: 0.858469
[rank 1, worker 11] busy ratio: 0.846690
[rank 1, worker 12] busy ratio: 0.836427
[rank 1, worker 13] busy ratio: 0.864111
[rank 1, worker 14] busy ratio: 0.933798
[rank 1, worker 15] busy ratio: 0.933721
[rank 1, worker 16] busy ratio: 0.933875
[rank 1, worker 17] busy ratio: 0.937355
[rank 1, worker 18] busy ratio: 0.872242
[rank 1, worker 19] busy ratio: 0.849013
[rank 1, worker 20] busy ratio: 0.866744
[rank 1, worker 21] busy ratio: 0.932715
[rank 1, worker 22] busy ratio: 0.930233
[rank 1, worker 23] busy ratio: 0.931475
[rank 1, worker 24] busy ratio: 0.844186
[rank 1, worker 25] busy ratio: 0.850174
[rank 1, worker 26] busy ratio: 0.854820
[rank 1, worker 27] busy ratio: 0.849013
[rank 1, worker 28] busy ratio: 0.796275
[rank 1, worker 29] busy ratio: 0.775842
[rank 1, worker 30] busy ratio: 0.775581
[rank 1, worker 31] busy ratio: 0.772358
[rank 3, worker 22] busy ratio: 0.887471
[rank 3, worker 23] busy ratio: 0.880510
[rank 3, worker 24] busy ratio: 0.851336
[rank 0, worker 4] busy ratio: 0.880233
[rank 0, worker 5] busy ratio: 0.861789
[rank 0, worker 6] busy ratio: 0.852497
[rank 0, worker 7] busy ratio: 0.930475
[rank 0, worker 8] busy ratio: 0.932715
[rank 0, worker 9] busy ratio: 0.935035
[rank 0, worker 10] busy ratio: 0.855156
[rank 0, worker 11] busy ratio: 0.852668
[rank 0, worker 12] busy ratio: 0.851336
[rank 2, worker 10] busy ratio: 0.854988
[rank 2, worker 11] busy ratio: 0.850174
[rank 2, worker 12] busy ratio: 0.858469
[rank 2, worker 13] busy ratio: 0.854988
[rank 2, worker 14] busy ratio: 0.906977
[rank 2, worker 15] busy ratio: 0.905923
[rank 2, worker 16] busy ratio: 0.902552
[rank 2, worker 17] busy ratio: 0.904983
[rank 2, worker 18] busy ratio: 0.848028
[rank 2, worker 19] busy ratio: 0.858469
[rank 2, worker 20] busy ratio: 0.852668
[rank 2, worker 21] busy ratio: 0.904983
[rank 2, worker 22] busy ratio: 0.899072
[rank 2, worker 23] busy ratio: 0.903600
[rank 2, worker 24] busy ratio: 0.854988
[rank 2, worker 25] busy ratio: 0.849188
[rank 2, worker 26] busy ratio: 0.851508
[rank 2, worker 27] busy ratio: 0.854988
[rank 2, worker 28] busy ratio: 0.833914
[rank 2, worker 29] busy ratio: 0.822093
[rank 2, worker 30] busy ratio: 0.813008
[rank 2, worker 31] busy ratio: 0.824623
[rank 2, worker 32] busy ratio: 0.832753
[rank 2, worker 33] busy ratio: 0.837398
[rank 2, worker 34] busy ratio: 0.851680
[rank 2, worker 35] busy ratio: 0.815545
[rank 2, worker 36] busy ratio: 0.837587
[rank 1, worker 32] busy ratio: 0.786295
[rank 1, worker 33] busy ratio: 0.805104
[rank 1, worker 34] busy ratio: 0.800000
[rank 3, worker 25] busy ratio: 0.839907
[rank 3, worker 26] busy ratio: 0.850348
[rank 3, worker 27] busy ratio: 0.839535
[rank 0, worker 13] busy ratio: 0.858469
[rank 0, worker 14] busy ratio: 0.926914
[rank 2, worker 37] busy ratio: 0.852668
[rank 2, worker 38] busy ratio: 0.823666
[rank 2, worker 39] busy ratio: 0.832753
[rank 1, worker 35] busy ratio: 0.785134
[rank 1, worker 36] busy ratio: 0.795587
[rank 3, worker 28] busy ratio: 0.861628
[rank 3, worker 29] busy ratio: 0.825784
[rank 0, worker 15] busy ratio: 0.931475
[rank 0, worker 16] busy ratio: 0.931634
[rank 0, worker 17] busy ratio: 0.933875
[rank 2, worker 40] busy ratio: 0.807201
[rank 2, worker 41] busy ratio: 0.823666
[rank 1, worker 37] busy ratio: 0.781395
[rank 1, worker 38] busy ratio: 0.799304
[rank 3, worker 30] busy ratio: 0.839535
[rank 3, worker 31] busy ratio: 0.859466
[rank 0, worker 18] busy ratio: 0.846868
[rank 0, worker 19] busy ratio: 0.850174
[rank 2, worker 42] busy ratio: 0.796748
[rank 2, worker 43] busy ratio: 0.805814
[rank 1, worker 39] busy ratio: 0.795587
[rank 1, worker 40] busy ratio: 0.785134
[rank 3, worker 32] busy ratio: 0.842227
[rank 3, worker 33] busy ratio: 0.847674
[rank 3, worker 34] busy ratio: 0.842044
[rank 0, worker 20] busy ratio: 0.851336
[rank 0, worker 21] busy ratio: 0.931634
[rank 2, worker 44] busy ratio: 0.842227
[rank 2, worker 45] busy ratio: 0.808585
[rank 2, worker 46] busy ratio: 0.816492
[rank 2, worker 47] busy ratio: 0.812065
[rank 2, worker 48] busy ratio: 0.814385
[rank 2, worker 49] busy ratio: 0.845528
[rank 1, worker 41] busy ratio: 0.801624
[rank 1, worker 42] busy ratio: 0.775842
[rank 1, worker 43] busy ratio: 0.801394
[rank 1, worker 44] busy ratio: 0.786962
[rank 1, worker 45] busy ratio: 0.788618
[rank 3, worker 35] busy ratio: 0.851336
[rank 3, worker 36] busy ratio: 0.853659
[rank 0, worker 22] busy ratio: 0.930314
[rank 0, worker 23] busy ratio: 0.915215
[rank 2, worker 50] busy ratio: 0.780488
[rank 2, worker 51] busy ratio: 0.844728
[rank 1, worker 46] busy ratio: 0.787456
[rank 1, worker 47] busy ratio: 0.779582
[rank 3, worker 37] busy ratio: 0.846690
[rank 3, worker 38] busy ratio: 0.852668
[rank 0, worker 24] busy ratio: 0.846690
[rank 0, worker 25] busy ratio: 0.855981
[rank 2, worker 52] busy ratio: 0.845708
[rank 2, worker 53] busy ratio: 0.808585
[rank 1, worker 48] busy ratio: 0.800232
[rank 1, worker 49] busy ratio: 0.796748
[rank 1, worker 50] busy ratio: 0.798837
[rank 1, worker 51] busy ratio: 0.789779
[rank 1, worker 52] busy ratio: 0.802784
[rank 1, worker 53] busy ratio: 0.777003
[rank 1, worker 54] busy ratio: 0.769142
[rank 1, worker 55] busy ratio: 0.658906
[rank 3, worker 39] busy ratio: 0.847851
[rank 3, worker 40] busy ratio: 0.853828
[rank 3, worker 41] busy ratio: 0.830626
[rank 0, worker 26] busy ratio: 0.854988
[rank 0, worker 27] busy ratio: 0.850521
[rank 0, worker 28] busy ratio: 0.843023
[rank 0, worker 29] busy ratio: 0.815545
[rank 0, worker 30] busy ratio: 0.822506
[rank 0, worker 31] busy ratio: 0.825986
[rank 2, worker 54] busy ratio: 0.823461
[rank 2, worker 55] busy ratio: 0.759022
[rank 3, worker 42] busy ratio: 0.846333
[rank 3, worker 43] busy ratio: 0.857309
[rank 0, worker 32] busy ratio: 0.835267
[rank 0, worker 33] busy ratio: 0.836427
[rank 0, worker 34] busy ratio: 0.851336
[rank 3, worker 44] busy ratio: 0.850000
[rank 3, worker 45] busy ratio: 0.858140
[rank 0, worker 35] busy ratio: 0.823666
[rank 0, worker 36] busy ratio: 0.842044
[rank 3, worker 46] busy ratio: 0.851508
[rank 3, worker 47] busy ratio: 0.837398
[rank 3, worker 48] busy ratio: 0.860627
[rank 0, worker 37] busy ratio: 0.851508
[rank 0, worker 38] busy ratio: 0.830626
[rank 3, worker 49] busy ratio: 0.837398
[rank 3, worker 50] busy ratio: 0.842044
[rank 0, worker 39] busy ratio: 0.849363
[rank 0, worker 40] busy ratio: 0.822506
[rank 3, worker 51] busy ratio: 0.840883
[rank 3, worker 52] busy ratio: 0.855981
[rank 0, worker 41] busy ratio: 0.836427
[rank 0, worker 42] busy ratio: 0.814385
[rank 3, worker 53] busy ratio: 0.832558
[rank 3, worker 54] busy ratio: 0.831591
[rank 3, worker 55] busy ratio: 0.784633
[rank 0, worker 43] busy ratio: 0.829466
[rank 0, worker 44] busy ratio: 0.838560
[rank 0, worker 45] busy ratio: 0.817865
[rank 0, worker 46] busy ratio: 0.821346
[rank 0, worker 47] busy ratio: 0.835267
[rank 0, worker 48] busy ratio: 0.822506
[rank 0, worker 49] busy ratio: 0.849188
[rank 0, worker 50] busy ratio: 0.803944
[rank 0, worker 51] busy ratio: 0.842227
[rank 0, worker 52] busy ratio: 0.835075
[rank 0, worker 53] busy ratio: 0.823461
[rank 0, worker 54] busy ratio: 0.836237
[rank 0, worker 55] busy ratio: 0.771462
Loop time of 8.62647 on 224 procs for 100 steps with 6912000 atoms

Performance: 5007.842 tau/day, 11.592 timesteps/s
4711.1% CPU use with 4 MPI tasks x 56 OpenMP threads

MPI task timing breakdown:
Section |  min time  |  avg time  |  max time  |%varavg| %total
---------------------------------------------------------------
Pair    | 5.4349     | 5.5973     | 5.852      |   6.5 | 64.88
Neigh   | 0.77274    | 0.785      | 0.80776    |   1.5 |  9.10
Comm    | 0.93601    | 1.2159     | 1.456      |  16.9 | 14.10
Output  | 0.00036821 | 0.010887   | 0.016989   |   6.1 |  0.13
Modify  | 0.2811     | 0.45854    | 0.54584    |  15.4 |  5.32
Other   |            | 0.5589     |            |       |  6.48

Nlocal:    1.728e+06 ave 1.72823e+06 max 1.72772e+06 min
Histogram: 1 0 0 0 0 1 1 0 0 1
Nghost:    260645 ave 260881 max 260518 min
Histogram: 1 1 1 0 0 0 0 0 0 1
Neighs:    0 ave 0 max 0 min
Histogram: 4 0 0 0 0 0 0 0 0 0
FullNghs:  1.2979e+08 ave 1.29814e+08 max 1.29771e+08 min
Histogram: 1 0 1 0 0 1 0 0 0 1

Total # of neighbors = 519161500
Ave neighs/atom = 75.1102
Neighbor list builds = 5
Dangerous builds not checked
Total wall time: 0:00:13
