LAMMPS (7 Aug 2019)
KOKKOS mode is enabled (../kokkos.cpp:85)
  will use up to 0 GPU(s) per node
  using 56 OpenMP thread(s) per MPI task
Lattice spacing in x,y,z = 1.6796 1.6796 1.6796
Created orthogonal box = (0 0 0) to (403.103 403.103 403.103)
  1 by 2 by 2 MPI processor grid
Created 55296000 atoms
  create_atoms CPU = 15.6018 secs
Neighbor list info ...
  update every 20 steps, delay 0 steps, check no
  max neighbors/atom: 2000, page size: 100000
  master list distance cutoff = 2.8
  ghost atom cutoff = 2.8
  binsize = 1.4, bins = 288 288 288
  1 neighbor lists, perpetual/occasional/extra = 1 0 0
  (1) pair lj/cut/kk, perpetual
      attributes: full, newton off, kokkos_device
      pair build: full/bin/kk/device
      stencil: full/bin/3d
      bin: kk/device
Setting up Verlet run ...
  Unit style    : lj
  Current step  : 0
  Time step     : 0.005
Per MPI rank memory allocation (min/avg/max) = 2.709e+04 | 2.709e+04 | 2.709e+04 Mbytes
Step Temp E_pair E_mol TotEng Press 
       0         1.44   -6.7733681            0   -4.6133681   -5.0196693 
     100   0.75942427   -5.7614518            0   -4.6223154   0.19008332 
[rank 0, worker 0] busy ratio: 0.972689
[rank 0, worker 1] busy ratio: 0.844861
[rank 0, worker 2] busy ratio: 0.843010
[rank 0, worker 3] busy ratio: 0.846639
[rank 0, worker 4] busy ratio: 0.840115
[rank 0, worker 5] busy ratio: 0.847241
[rank 0, worker 6] busy ratio: 0.847785
[rank 0, worker 7] busy ratio: 0.843171
[rank 0, worker 8] busy ratio: 0.847461
[rank 0, worker 9] busy ratio: 0.848549
[rank 0, worker 10] busy ratio: 0.847814
[rank 0, worker 11] busy ratio: 0.836134
[rank 0, worker 12] busy ratio: 0.852806
[rank 0, worker 13] busy ratio: 0.848739
[rank 0, worker 14] busy ratio: 0.846859
[rank 1, worker 0] busy ratio: 0.971150
[rank 1, worker 1] busy ratio: 0.869532
[rank 1, worker 2] busy ratio: 0.861536
[rank 1, worker 3] busy ratio: 0.865546
[rank 1, worker 4] busy ratio: 0.835180
[rank 1, worker 5] busy ratio: 0.832856
[rank 1, worker 6] busy ratio: 0.826776
[rank 1, worker 7] busy ratio: 0.861727
[rank 1, worker 8] busy ratio: 0.862681
[rank 3, worker 0] busy ratio: 0.966393
[rank 3, worker 1] busy ratio: 0.854222
[rank 3, worker 2] busy ratio: 0.860199
[rank 3, worker 3] busy ratio: 0.861318
[rank 3, worker 4] busy ratio: 0.841291
[rank 3, worker 5] busy ratio: 0.829226
[rank 3, worker 6] busy ratio: 0.832442
[rank 3, worker 7] busy ratio: 0.860772
[rank 3, worker 8] busy ratio: 0.859462
[rank 0, worker 15] busy ratio: 0.848358
[rank 0, worker 16] busy ratio: 0.849312
[rank 0, worker 17] busy ratio: 0.847241
[rank 1, worker 9] busy ratio: 0.862629
[rank 1, worker 10] busy ratio: 0.829706
[rank 1, worker 11] busy ratio: 0.839221
[rank 1, worker 12] busy ratio: 0.821272
[rank 1, worker 13] busy ratio: 0.829483
[rank 1, worker 14] busy ratio: 0.862872
[rank 1, worker 15] busy ratio: 0.862734
[rank 1, worker 16] busy ratio: 0.865521
[rank 1, worker 17] busy ratio: 0.858698
[rank 1, worker 18] busy ratio: 0.832920
[rank 1, worker 19] busy ratio: 0.829101
[rank 1, worker 20] busy ratio: 0.838648
[rank 1, worker 21] busy ratio: 0.860607
[rank 1, worker 22] busy ratio: 0.862108
[rank 1, worker 23] busy ratio: 0.859297
[rank 1, worker 24] busy ratio: 0.829673
[rank 1, worker 25] busy ratio: 0.831010
[rank 1, worker 26] busy ratio: 0.823979
[rank 1, worker 27] busy ratio: 0.826743
[rank 1, worker 28] busy ratio: 0.808787
[rank 1, worker 29] busy ratio: 0.795415
[rank 1, worker 30] busy ratio: 0.808060
[rank 1, worker 31] busy ratio: 0.798281
[rank 1, worker 32] busy ratio: 0.807523
[rank 1, worker 33] busy ratio: 0.816307
[rank 3, worker 9] busy ratio: 0.860225
[rank 3, worker 10] busy ratio: 0.825597
[rank 3, worker 11] busy ratio: 0.818911
[rank 3, worker 12] busy ratio: 0.827889
[rank 3, worker 13] busy ratio: 0.825057
[rank 3, worker 14] busy ratio: 0.858343
[rank 3, worker 15] busy ratio: 0.861154
[rank 3, worker 16] busy ratio: 0.852750
[rank 3, worker 17] busy ratio: 0.852587
[rank 3, worker 18] busy ratio: 0.829068
[rank 3, worker 19] busy ratio: 0.823529
[rank 3, worker 20] busy ratio: 0.827540
[rank 3, worker 21] busy ratio: 0.861371
[rank 3, worker 22] busy ratio: 0.856188
[rank 3, worker 23] busy ratio: 0.858316
[rank 3, worker 24] busy ratio: 0.825630
[rank 3, worker 25] busy ratio: 0.828719
[rank 3, worker 26] busy ratio: 0.826585
[rank 3, worker 27] busy ratio: 0.830088
[rank 3, worker 28] busy ratio: 0.799694
[rank 3, worker 29] busy ratio: 0.811270
[rank 3, worker 30] busy ratio: 0.820890
[rank 3, worker 31] busy ratio: 0.802637
[rank 3, worker 32] busy ratio: 0.813825
[rank 3, worker 33] busy ratio: 0.813980
[rank 3, worker 34] busy ratio: 0.820248
[rank 0, worker 18] busy ratio: 0.848386
[rank 0, worker 19] busy ratio: 0.843613
[rank 1, worker 34] busy ratio: 0.806341
[rank 1, worker 35] busy ratio: 0.808405
[rank 1, worker 36] busy ratio: 0.802139
[rank 3, worker 35] busy ratio: 0.822002
[rank 3, worker 36] busy ratio: 0.816463
[rank 3, worker 37] busy ratio: 0.822383
[rank 0, worker 20] busy ratio: 0.843613
[rank 0, worker 21] busy ratio: 0.843804
[rank 0, worker 22] busy ratio: 0.847050
[rank 0, worker 23] busy ratio: 0.851222
[rank 0, worker 24] busy ratio: 0.852177
[rank 0, worker 25] busy ratio: 0.850458
[rank 0, worker 26] busy ratio: 0.843774
[rank 0, worker 27] busy ratio: 0.841864
[rank 0, worker 28] busy ratio: 0.834607
[rank 0, worker 29] busy ratio: 0.847461
[rank 0, worker 30] busy ratio: 0.845713
[rank 0, worker 31] busy ratio: 0.849312
[rank 2, worker 0] busy ratio: 0.974036
[rank 2, worker 1] busy ratio: 0.837409
[rank 2, worker 2] busy ratio: 0.839443
[rank 2, worker 3] busy ratio: 0.845331
[rank 2, worker 4] busy ratio: 0.823878
[rank 2, worker 5] busy ratio: 0.824709
[rank 2, worker 6] busy ratio: 0.827316
[rank 2, worker 7] busy ratio: 0.839893
[rank 2, worker 8] busy ratio: 0.837915
[rank 2, worker 9] busy ratio: 0.839763
[rank 1, worker 37] busy ratio: 0.815805
[rank 1, worker 38] busy ratio: 0.804240
[rank 3, worker 38] busy ratio: 0.822036
[rank 3, worker 39] busy ratio: 0.817036
[rank 0, worker 32] busy ratio: 0.849179
[rank 0, worker 33] busy ratio: 0.838968
[rank 1, worker 39] busy ratio: 0.806569
[rank 1, worker 40] busy ratio: 0.814900
[rank 3, worker 40] busy ratio: 0.827731
[rank 3, worker 41] busy ratio: 0.818251
[rank 0, worker 34] busy ratio: 0.847652
[rank 0, worker 35] busy ratio: 0.842306
[rank 0, worker 36] busy ratio: 0.850458
[rank 2, worker 10] busy ratio: 0.827955
[rank 2, worker 11] busy ratio: 0.824709
[rank 2, worker 12] busy ratio: 0.825091
[rank 2, worker 13] busy ratio: 0.823597
[rank 2, worker 14] busy ratio: 0.842055
[rank 2, worker 15] busy ratio: 0.838044
[rank 2, worker 16] busy ratio: 0.841130
[rank 2, worker 17] busy ratio: 0.842055
[rank 2, worker 18] busy ratio: 0.830628
[rank 2, worker 19] busy ratio: 0.828146
[rank 2, worker 20] busy ratio: 0.824900
[rank 2, worker 21] busy ratio: 0.842055
[rank 2, worker 22] busy ratio: 0.839030
[rank 2, worker 23] busy ratio: 0.840306
[rank 2, worker 24] busy ratio: 0.824170
[rank 2, worker 25] busy ratio: 0.829864
[rank 2, worker 26] busy ratio: 0.828686
[rank 2, worker 27] busy ratio: 0.822193
[rank 2, worker 28] busy ratio: 0.799656
[rank 2, worker 29] busy ratio: 0.804049
[rank 2, worker 30] busy ratio: 0.808251
[rank 2, worker 31] busy ratio: 0.810579
[rank 2, worker 32] busy ratio: 0.809433
[rank 2, worker 33] busy ratio: 0.815161
[rank 1, worker 41] busy ratio: 0.808669
[rank 1, worker 42] busy ratio: 0.799313
[rank 3, worker 42] busy ratio: 0.803247
[rank 3, worker 43] busy ratio: 0.818946
[rank 0, worker 37] busy ratio: 0.847432
[rank 0, worker 38] busy ratio: 0.844436
[rank 2, worker 34] busy ratio: 0.814398
[rank 2, worker 35] busy ratio: 0.813598
[rank 2, worker 36] busy ratio: 0.814900
[rank 1, worker 43] busy ratio: 0.799313
[rank 1, worker 44] busy ratio: 0.794730
[rank 1, worker 45] busy ratio: 0.811115
[rank 1, worker 46] busy ratio: 0.801031
[rank 1, worker 47] busy ratio: 0.808978
[rank 3, worker 44] busy ratio: 0.813443
[rank 3, worker 45] busy ratio: 0.815508
[rank 3, worker 46] busy ratio: 0.813025
[rank 3, worker 47] busy ratio: 0.811843
[rank 3, worker 48] busy ratio: 0.818564
[rank 0, worker 39] busy ratio: 0.836707
[rank 0, worker 40] busy ratio: 0.844186
[rank 2, worker 37] busy ratio: 0.810160
[rank 2, worker 38] busy ratio: 0.818217
[rank 2, worker 39] busy ratio: 0.819744
[rank 1, worker 48] busy ratio: 0.808669
[rank 1, worker 49] busy ratio: 0.802292
[rank 3, worker 49] busy ratio: 0.821047
[rank 3, worker 50] busy ratio: 0.826618
[rank 3, worker 51] busy ratio: 0.816689
[rank 0, worker 41] busy ratio: 0.845493
[rank 0, worker 42] busy ratio: 0.847299
[rank 2, worker 40] busy ratio: 0.810924
[rank 2, worker 41] busy ratio: 0.810542
[rank 1, worker 50] busy ratio: 0.786478
[rank 1, worker 51] busy ratio: 0.808060
[rank 3, worker 52] busy ratio: 0.817262
[rank 3, worker 53] busy ratio: 0.813145
[rank 0, worker 43] busy ratio: 0.833015
[rank 0, worker 44] busy ratio: 0.841703
[rank 2, worker 42] busy ratio: 0.793657
[rank 2, worker 43] busy ratio: 0.811151
[rank 1, worker 52] busy ratio: 0.811533
[rank 1, worker 53] busy ratio: 0.806378
[rank 3, worker 54] busy ratio: 0.813598
[rank 3, worker 55] busy ratio: 0.728888
[rank 0, worker 45] busy ratio: 0.843804
[rank 0, worker 46] busy ratio: 0.842467
[rank 0, worker 47] busy ratio: 0.847079
[rank 2, worker 44] busy ratio: 0.817227
[rank 2, worker 45] busy ratio: 0.800344
[rank 2, worker 46] busy ratio: 0.814016
[rank 2, worker 47] busy ratio: 0.814171
[rank 1, worker 54] busy ratio: 0.805996
[rank 1, worker 55] busy ratio: 0.731269
[rank 0, worker 48] busy ratio: 0.846345
[rank 0, worker 49] busy ratio: 0.846830
[rank 2, worker 48] busy ratio: 0.813527
[rank 2, worker 49] busy ratio: 0.817956
[rank 2, worker 50] busy ratio: 0.819102
[rank 2, worker 51] busy ratio: 0.821463
[rank 2, worker 52] busy ratio: 0.816845
[rank 2, worker 53] busy ratio: 0.817835
[rank 2, worker 54] busy ratio: 0.799885
[rank 2, worker 55] busy ratio: 0.719992
[rank 0, worker 50] busy ratio: 0.840749
[rank 0, worker 51] busy ratio: 0.849752
[rank 0, worker 52] busy ratio: 0.848739
[rank 0, worker 53] busy ratio: 0.845875
[rank 0, worker 54] busy ratio: 0.837724
[rank 0, worker 55] busy ratio: 0.748519
Loop time of 52.386 on 224 procs for 100 steps with 55296000 atoms

Performance: 824.648 tau/day, 1.909 timesteps/s
4606.6% CPU use with 4 MPI tasks x 56 OpenMP threads

MPI task timing breakdown:
Section |  min time  |  avg time  |  max time  |%varavg| %total
---------------------------------------------------------------
Pair    | 29.931     | 30.315     | 30.676     |   5.3 | 57.87
Neigh   | 6.6479     | 6.8849     | 7.1503     |   7.1 | 13.14
Comm    | 5.8341     | 6.3466     | 6.8462     |  14.9 | 12.11
Output  | 0.0035601  | 0.084822   | 0.17277    |  22.2 |  0.16
Modify  | 1.6919     | 1.9421     | 2.2025     |  13.1 |  3.71
Other   |            | 6.813      |            |       | 13.01

Nlocal:    1.3824e+07 ave 1.38247e+07 max 1.38235e+07 min
Histogram: 1 1 0 0 0 0 1 0 0 1
Nghost:    1.01912e+06 ave 1.01965e+06 max 1.0184e+06 min
Histogram: 1 0 0 0 1 0 0 0 1 1
Neighs:    0 ave 0 max 0 min
Histogram: 4 0 0 0 0 0 0 0 0 0
FullNghs:  1.0383e+09 ave 1.03837e+09 max 1.03824e+09 min
Histogram: 1 0 1 0 0 1 0 0 0 1

Total # of neighbors = 4.1532e+09
Ave neighs/atom = 75.1085
Neighbor list builds = 5
Dangerous builds not checked
Total wall time: 0:01:15
