LAMMPS (7 Aug 2019)
KOKKOS mode is enabled (../kokkos.cpp:85)
  will use up to 0 GPU(s) per node
  using 56 OpenMP thread(s) per MPI task
Lattice spacing in x,y,z = 1.6796 1.6796 1.6796
Created orthogonal box = (0 0 0) to (268.735 268.735 268.735)
  1 by 2 by 2 MPI processor grid
Created 16384000 atoms
  create_atoms CPU = 6.99436 secs
Neighbor list info ...
  update every 20 steps, delay 0 steps, check no
  max neighbors/atom: 2000, page size: 100000
  master list distance cutoff = 2.8
  ghost atom cutoff = 2.8
  binsize = 1.4, bins = 192 192 192
  1 neighbor lists, perpetual/occasional/extra = 1 0 0
  (1) pair lj/cut/kk, perpetual
      attributes: full, newton off, kokkos_device
      pair build: full/bin/kk/device
      stencil: full/bin/3d
      bin: kk/device
Setting up Verlet run ...
  Unit style    : lj
  Current step  : 0
  Time step     : 0.005
Per MPI rank memory allocation (min/avg/max) = 8306 | 8306 | 8306 Mbytes
Step Temp E_pair E_mol TotEng Press 
       0         1.44   -6.7733681            0   -4.6133682   -5.0196693 
     100   0.75918554   -5.7610896            0   -4.6223114   0.19195085 
[rank 3, worker 0] busy ratio: 0.975386
[rank 3, worker 1] busy ratio: 0.821339
[rank 3, worker 2] busy ratio: 0.837510
[rank 3, worker 3] busy ratio: 0.843293
[rank 3, worker 4] busy ratio: 0.791301
[rank 3, worker 5] busy ratio: 0.757525
[rank 3, worker 6] busy ratio: 0.760234
[rank 3, worker 7] busy ratio: 0.840852
[rank 1, worker 0] busy ratio: 0.993319
[rank 1, worker 1] busy ratio: 0.874948
[rank 1, worker 2] busy ratio: 0.874582
[rank 1, worker 3] busy ratio: 0.868003
[rank 1, worker 4] busy ratio: 0.806020
[rank 1, worker 5] busy ratio: 0.799415
[rank 1, worker 6] busy ratio: 0.801922
[rank 3, worker 8] busy ratio: 0.848371
[rank 3, worker 9] busy ratio: 0.835908
[rank 3, worker 10] busy ratio: 0.755119
[rank 3, worker 11] busy ratio: 0.754181
[rank 3, worker 12] busy ratio: 0.755537
[rank 3, worker 13] busy ratio: 0.740911
[rank 3, worker 14] busy ratio: 0.842589
[rank 3, worker 15] busy ratio: 0.845029
[rank 3, worker 16] busy ratio: 0.830338
[rank 1, worker 7] busy ratio: 0.878446
[rank 1, worker 8] busy ratio: 0.867948
[rank 1, worker 9] busy ratio: 0.878864
[rank 1, worker 10] busy ratio: 0.793737
[rank 1, worker 11] busy ratio: 0.794904
[rank 1, worker 12] busy ratio: 0.798997
[rank 1, worker 13] busy ratio: 0.792398
[rank 1, worker 14] busy ratio: 0.880585
[rank 1, worker 15] busy ratio: 0.876827
[rank 1, worker 16] busy ratio: 0.890514
[rank 1, worker 17] busy ratio: 0.890560
[rank 1, worker 18] busy ratio: 0.798246
[rank 1, worker 19] busy ratio: 0.794314
[rank 1, worker 20] busy ratio: 0.790639
[rank 2, worker 0] busy ratio: 0.990397
[rank 2, worker 1] busy ratio: 0.852720
[rank 2, worker 2] busy ratio: 0.853679
[rank 2, worker 3] busy ratio: 0.858337
[rank 2, worker 4] busy ratio: 0.789210
[rank 2, worker 5] busy ratio: 0.785953
[rank 2, worker 6] busy ratio: 0.776662
[rank 2, worker 7] busy ratio: 0.856725
[rank 2, worker 8] busy ratio: 0.867112
[rank 0, worker 0] busy ratio: 0.992475
[rank 0, worker 1] busy ratio: 0.855351
[rank 0, worker 2] busy ratio: 0.845029
[rank 0, worker 3] busy ratio: 0.846764
[rank 3, worker 17] busy ratio: 0.844259
[rank 3, worker 18] busy ratio: 0.739239
[rank 3, worker 19] busy ratio: 0.753763
[rank 1, worker 21] busy ratio: 0.891023
[rank 1, worker 22] busy ratio: 0.894737
[rank 1, worker 23] busy ratio: 0.890142
[rank 2, worker 9] busy ratio: 0.869256
[rank 2, worker 10] busy ratio: 0.769134
[rank 2, worker 11] busy ratio: 0.771835
[rank 2, worker 12] busy ratio: 0.781864
[rank 2, worker 13] busy ratio: 0.770485
[rank 2, worker 14] busy ratio: 0.876724
[rank 2, worker 15] busy ratio: 0.862458
[rank 2, worker 16] busy ratio: 0.862516
[rank 2, worker 17] busy ratio: 0.871291
[rank 2, worker 18] busy ratio: 0.780008
[rank 2, worker 19] busy ratio: 0.764952
[rank 2, worker 20] busy ratio: 0.773829
[rank 2, worker 21] busy ratio: 0.867586
[rank 0, worker 4] busy ratio: 0.779682
[rank 0, worker 5] busy ratio: 0.770581
[rank 0, worker 6] busy ratio: 0.765566
[rank 0, worker 7] busy ratio: 0.852548
[rank 0, worker 8] busy ratio: 0.837093
[rank 0, worker 9] busy ratio: 0.855890
[rank 0, worker 10] busy ratio: 0.766402
[rank 0, worker 11] busy ratio: 0.766500
[rank 0, worker 12] busy ratio: 0.765984
[rank 3, worker 20] busy ratio: 0.753865
[rank 3, worker 21] busy ratio: 0.925230
[rank 1, worker 24] busy ratio: 0.799916
[rank 1, worker 25] busy ratio: 0.799081
[rank 2, worker 22] busy ratio: 0.874216
[rank 2, worker 23] busy ratio: 0.872492
[rank 2, worker 24] busy ratio: 0.772157
[rank 0, worker 13] busy ratio: 0.765246
[rank 0, worker 14] busy ratio: 0.851419
[rank 0, worker 15] busy ratio: 0.851713
[rank 3, worker 22] busy ratio: 0.843711
[rank 3, worker 23] busy ratio: 0.840368
[rank 1, worker 26] busy ratio: 0.798246
[rank 1, worker 27] busy ratio: 0.794486
[rank 2, worker 25] busy ratio: 0.776244
[rank 2, worker 26] busy ratio: 0.806856
[rank 0, worker 16] busy ratio: 0.860902
[rank 0, worker 17] busy ratio: 0.860485
[rank 3, worker 24] busy ratio: 0.747074
[rank 3, worker 25] busy ratio: 0.752194
[rank 3, worker 26] busy ratio: 0.748433
[rank 1, worker 28] busy ratio: 0.643336
[rank 1, worker 29] busy ratio: 0.612714
[rank 2, worker 27] busy ratio: 0.769745
[rank 2, worker 28] busy ratio: 0.702261
[rank 0, worker 18] busy ratio: 0.764829
[rank 0, worker 19] busy ratio: 0.759298
[rank 3, worker 27] busy ratio: 0.737568
[rank 3, worker 28] busy ratio: 0.746025
[rank 1, worker 30] busy ratio: 0.659566
[rank 1, worker 31] busy ratio: 0.596909
[rank 2, worker 29] busy ratio: 0.643515
[rank 2, worker 30] busy ratio: 0.699289
[rank 0, worker 20] busy ratio: 0.768588
[rank 0, worker 21] busy ratio: 0.860902
[rank 3, worker 29] busy ratio: 0.722826
[rank 3, worker 30] busy ratio: 0.721990
[rank 3, worker 31] busy ratio: 0.719064
[rank 1, worker 32] busy ratio: 0.610531
[rank 1, worker 33] busy ratio: 0.616381
[rank 2, worker 31] busy ratio: 0.660535
[rank 2, worker 32] busy ratio: 0.645067
[rank 0, worker 22] busy ratio: 0.863351
[rank 0, worker 23] busy ratio: 0.864301
[rank 3, worker 32] busy ratio: 0.731300
[rank 3, worker 33] busy ratio: 0.729515
[rank 3, worker 34] busy ratio: 0.716674
[rank 1, worker 34] busy ratio: 0.623225
[rank 1, worker 35] busy ratio: 0.603009
[rank 1, worker 36] busy ratio: 0.652047
[rank 1, worker 37] busy ratio: 0.629073
[rank 2, worker 33] busy ratio: 0.675868
[rank 2, worker 34] busy ratio: 0.651756
[rank 0, worker 24] busy ratio: 0.765246
[rank 0, worker 25] busy ratio: 0.766722
[rank 3, worker 35] busy ratio: 0.725334
[rank 3, worker 36] busy ratio: 0.719716
[rank 1, worker 38] busy ratio: 0.598662
[rank 1, worker 39] busy ratio: 0.623067
[rank 2, worker 35] busy ratio: 0.658027
[rank 2, worker 36] busy ratio: 0.696906
[rank 2, worker 37] busy ratio: 0.654827
[rank 2, worker 38] busy ratio: 0.671823
[rank 2, worker 39] busy ratio: 0.642559
[rank 0, worker 26] busy ratio: 0.755221
[rank 0, worker 27] busy ratio: 0.760552
[rank 3, worker 37] busy ratio: 0.728488
[rank 3, worker 38] busy ratio: 0.720017
[rank 1, worker 40] busy ratio: 0.634085
[rank 1, worker 41] busy ratio: 0.650502
[rank 2, worker 40] busy ratio: 0.659983
[rank 2, worker 41] busy ratio: 0.669453
[rank 0, worker 28] busy ratio: 0.674195
[rank 0, worker 29] busy ratio: 0.651756
[rank 0, worker 30] busy ratio: 0.670844
[rank 0, worker 31] busy ratio: 0.663325
[rank 0, worker 32] busy ratio: 0.646617
[rank 3, worker 39] busy ratio: 0.727652
[rank 3, worker 40] busy ratio: 0.721572
[rank 1, worker 42] busy ratio: 0.593985
[rank 1, worker 43] busy ratio: 0.624739
[rank 1, worker 44] busy ratio: 0.586884
[rank 2, worker 42] busy ratio: 0.652447
[rank 2, worker 43] busy ratio: 0.682957
[rank 0, worker 33] busy ratio: 0.664856
[rank 0, worker 34] busy ratio: 0.647452
[rank 3, worker 41] busy ratio: 0.719599
[rank 3, worker 42] busy ratio: 0.730464
[rank 1, worker 45] busy ratio: 0.630589
[rank 1, worker 46] busy ratio: 0.635338
[rank 2, worker 44] busy ratio: 0.664020
[rank 2, worker 45] busy ratio: 0.637275
[rank 0, worker 35] busy ratio: 0.647452
[rank 0, worker 36] busy ratio: 0.697704
[rank 3, worker 43] busy ratio: 0.724498
[rank 3, worker 44] busy ratio: 0.720318
[rank 3, worker 45] busy ratio: 0.723778
[rank 1, worker 47] busy ratio: 0.648976
[rank 1, worker 48] busy ratio: 0.659841
[rank 2, worker 46] busy ratio: 0.640736
[rank 2, worker 47] busy ratio: 0.688127
[rank 0, worker 37] busy ratio: 0.645215
[rank 0, worker 38] busy ratio: 0.645633
[rank 3, worker 46] busy ratio: 0.720969
[rank 3, worker 47] busy ratio: 0.717509
[rank 1, worker 49] busy ratio: 0.590226
[rank 1, worker 50] busy ratio: 0.637845
[rank 2, worker 48] busy ratio: 0.621396
[rank 2, worker 49] busy ratio: 0.703471
[rank 0, worker 39] busy ratio: 0.626149
[rank 0, worker 40] busy ratio: 0.639933
[rank 3, worker 48] busy ratio: 0.722106
[rank 3, worker 49] busy ratio: 0.716973
[rank 1, worker 51] busy ratio: 0.589808
[rank 1, worker 52] busy ratio: 0.600334
[rank 2, worker 50] busy ratio: 0.617057
[rank 2, worker 51] busy ratio: 0.680735
[rank 0, worker 41] busy ratio: 0.662072
[rank 0, worker 42] busy ratio: 0.647034
[rank 3, worker 50] busy ratio: 0.728070
[rank 3, worker 51] busy ratio: 0.718763
[rank 1, worker 53] busy ratio: 0.605010
[rank 1, worker 54] busy ratio: 0.609858
[rank 1, worker 55] busy ratio: 0.569218
[rank 2, worker 52] busy ratio: 0.641186
[rank 2, worker 53] busy ratio: 0.661789
[rank 2, worker 54] busy ratio: 0.668340
[rank 2, worker 55] busy ratio: 0.689670
[rank 0, worker 43] busy ratio: 0.665414
[rank 0, worker 44] busy ratio: 0.650794
[rank 3, worker 52] busy ratio: 0.715838
[rank 3, worker 53] busy ratio: 0.719482
[rank 3, worker 54] busy ratio: 0.717210
[rank 0, worker 45] busy ratio: 0.633932
[rank 0, worker 46] busy ratio: 0.633668
[rank 0, worker 47] busy ratio: 0.686168
[rank 3, worker 55] busy ratio: 0.717092
[rank 0, worker 48] busy ratio: 0.621972
[rank 0, worker 49] busy ratio: 0.689353
[rank 0, worker 50] busy ratio: 0.623800
[rank 0, worker 51] busy ratio: 0.650794
[rank 0, worker 52] busy ratio: 0.633514
[rank 0, worker 53] busy ratio: 0.638262
[rank 0, worker 54] busy ratio: 0.666667
[rank 0, worker 55] busy ratio: 0.682407
Loop time of 23.9536 on 224 procs for 100 steps with 16384000 atoms

Performance: 1803.490 tau/day, 4.175 timesteps/s
4108.8% CPU use with 4 MPI tasks x 56 OpenMP threads

MPI task timing breakdown:
Section |  min time  |  avg time  |  max time  |%varavg| %total
---------------------------------------------------------------
Pair    | 17.21      | 17.516     | 17.959     |   6.8 | 73.13
Neigh   | 1.8469     | 1.9663     | 2.1717     |   9.3 |  8.21
Comm    | 1.9094     | 2.4144     | 3.1113     |  28.2 | 10.08
Output  | 0.0012439  | 0.071715   | 0.1346     |  19.2 |  0.30
Modify  | 0.53064    | 0.60916    | 0.65229    |   6.4 |  2.54
Other   |            | 1.376      |            |       |  5.74

Nlocal:    4.096e+06 ave 4.09657e+06 max 4.09544e+06 min
Histogram: 1 0 0 1 0 0 1 0 0 1
Nghost:    458178 ave 458566 max 457741 min
Histogram: 1 0 0 0 1 0 0 1 0 1
Neighs:    0 ave 0 max 0 min
Histogram: 4 0 0 0 0 0 0 0 0 0
FullNghs:  3.07645e+08 ave 3.07688e+08 max 3.07588e+08 min
Histogram: 1 0 0 0 1 0 0 0 1 1

Total # of neighbors = 1230581798
Ave neighs/atom = 75.1088
Neighbor list builds = 5
Dangerous builds not checked
Total wall time: 0:00:33
