LAMMPS (7 Aug 2019)
KOKKOS mode is enabled (../kokkos.cpp:85)
  will use up to 0 GPU(s) per node
  using 56 OpenMP thread(s) per MPI task
Lattice spacing in x,y,z = 1.6796 1.6796 1.6796
Created orthogonal box = (0 0 0) to (201.552 201.552 201.552)
  1 by 2 by 2 MPI processor grid
Created 6912000 atoms
  create_atoms CPU = 3.50985 secs
Neighbor list info ...
  update every 20 steps, delay 0 steps, check no
  max neighbors/atom: 2000, page size: 100000
  master list distance cutoff = 2.8
  ghost atom cutoff = 2.8
  binsize = 1.4, bins = 144 144 144
  1 neighbor lists, perpetual/occasional/extra = 1 0 0
  (1) pair lj/cut/kk, perpetual
      attributes: full, newton off, kokkos_device
      pair build: full/bin/kk/device
      stencil: full/bin/3d
      bin: kk/device
Setting up Verlet run ...
  Unit style    : lj
  Current step  : 0
  Time step     : 0.005
Per MPI rank memory allocation (min/avg/max) = 3650 | 3650 | 3650 Mbytes
Step Temp E_pair E_mol TotEng Press 
       0         1.44   -6.7733681            0   -4.6133684   -5.0196694 
     100   0.75929363   -5.7612508            0   -4.6223105   0.19076255 
[rank 0, worker 0] busy ratio: 0.983521
[rank 0, worker 1] busy ratio: 0.893229
[rank 0, worker 2] busy ratio: 0.907118
[rank 3, worker 0] busy ratio: 0.985230
[rank 3, worker 1] busy ratio: 0.882711
[rank 3, worker 2] busy ratio: 0.873264
[rank 3, worker 3] busy ratio: 0.888118
[rank 3, worker 4] busy ratio: 0.846957
[rank 3, worker 5] busy ratio: 0.808696
[rank 3, worker 6] busy ratio: 0.836947
[rank 3, worker 7] busy ratio: 0.844483
[rank 3, worker 8] busy ratio: 0.882812
[rank 3, worker 9] busy ratio: 0.884649
[rank 3, worker 10] busy ratio: 0.831597
[rank 3, worker 11] busy ratio: 0.837814
[rank 3, worker 12] busy ratio: 0.819288
[rank 3, worker 13] busy ratio: 0.827257
[rank 3, worker 14] busy ratio: 0.876736
[rank 3, worker 15] busy ratio: 0.860364
[rank 3, worker 16] busy ratio: 0.878472
[rank 3, worker 17] busy ratio: 0.873264
[rank 3, worker 18] busy ratio: 0.844483
[rank 3, worker 19] busy ratio: 0.806424
[rank 3, worker 20] busy ratio: 0.832611
[rank 3, worker 21] busy ratio: 0.871639
[rank 3, worker 22] busy ratio: 0.877816
[rank 3, worker 23] busy ratio: 0.882914
[rank 3, worker 24] busy ratio: 0.830009
[rank 3, worker 25] busy ratio: 0.820624
[rank 3, worker 26] busy ratio: 0.838682
[rank 3, worker 27] busy ratio: 0.828993
[rank 1, worker 0] busy ratio: 0.983536
[rank 1, worker 1] busy ratio: 0.924414
[rank 1, worker 2] busy ratio: 0.923677
[rank 1, worker 3] busy ratio: 0.925412
[rank 1, worker 4] busy ratio: 0.844483
[rank 1, worker 5] busy ratio: 0.808160
[rank 1, worker 6] busy ratio: 0.821894
[rank 1, worker 7] busy ratio: 0.913270
[rank 1, worker 8] busy ratio: 0.916739
[rank 1, worker 9] busy ratio: 0.921144
[rank 3, worker 28] busy ratio: 0.827407
[rank 3, worker 29] busy ratio: 0.795830
[rank 3, worker 30] busy ratio: 0.827976
[rank 0, worker 3] busy ratio: 0.904514
[rank 0, worker 4] busy ratio: 0.847089
[rank 0, worker 5] busy ratio: 0.836806
[rank 0, worker 6] busy ratio: 0.824500
[rank 0, worker 7] busy ratio: 0.901825
[rank 0, worker 8] busy ratio: 0.903646
[rank 0, worker 9] busy ratio: 0.905464
[rank 0, worker 10] busy ratio: 0.834926
[rank 0, worker 11] busy ratio: 0.809731
[rank 3, worker 31] busy ratio: 0.832611
[rank 3, worker 32] busy ratio: 0.801911
[rank 3, worker 33] busy ratio: 0.842014
[rank 0, worker 12] busy ratio: 0.829565
[rank 0, worker 13] busy ratio: 0.825369
[rank 0, worker 14] busy ratio: 0.887055
[rank 0, worker 15] busy ratio: 0.898438
[rank 3, worker 34] busy ratio: 0.807292
[rank 3, worker 35] busy ratio: 0.828125
[rank 3, worker 36] busy ratio: 0.825521
[rank 0, worker 16] busy ratio: 0.894097
[rank 0, worker 17] busy ratio: 0.900260
[rank 0, worker 18] busy ratio: 0.821739
[rank 3, worker 37] busy ratio: 0.825672
[rank 3, worker 38] busy ratio: 0.837814
[rank 0, worker 19] busy ratio: 0.842014
[rank 0, worker 20] busy ratio: 0.836664
[rank 0, worker 21] busy ratio: 0.902778
[rank 1, worker 10] busy ratio: 0.808160
[rank 1, worker 11] busy ratio: 0.812337
[rank 1, worker 12] busy ratio: 0.813368
[rank 1, worker 13] busy ratio: 0.816840
[rank 1, worker 14] busy ratio: 0.909801
[rank 1, worker 15] busy ratio: 0.909801
[rank 1, worker 16] busy ratio: 0.911535
[rank 1, worker 17] busy ratio: 0.915004
[rank 1, worker 18] busy ratio: 0.841146
[rank 1, worker 19] busy ratio: 0.817866
[rank 1, worker 20] busy ratio: 0.837674
[rank 1, worker 21] busy ratio: 0.921875
[rank 1, worker 22] busy ratio: 0.915872
[rank 3, worker 39] busy ratio: 0.827407
[rank 3, worker 40] busy ratio: 0.828993
[rank 3, worker 41] busy ratio: 0.831743
[rank 0, worker 22] busy ratio: 0.904597
[rank 0, worker 23] busy ratio: 0.887251
[rank 0, worker 24] busy ratio: 0.825672
[rank 1, worker 23] busy ratio: 0.902946
[rank 1, worker 24] busy ratio: 0.807292
[rank 1, worker 25] busy ratio: 0.795139
[rank 3, worker 42] busy ratio: 0.830729
[rank 3, worker 43] busy ratio: 0.837533
[rank 0, worker 25] busy ratio: 0.817550
[rank 0, worker 26] busy ratio: 0.828844
[rank 0, worker 27] busy ratio: 0.825217
[rank 0, worker 28] busy ratio: 0.806957
[rank 1, worker 26] busy ratio: 0.813530
[rank 1, worker 27] busy ratio: 0.794961
[rank 3, worker 44] busy ratio: 0.823938
[rank 3, worker 45] busy ratio: 0.836806
[rank 3, worker 46] busy ratio: 0.843750
[rank 0, worker 29] busy ratio: 0.752389
[rank 0, worker 30] busy ratio: 0.798611
[rank 0, worker 31] busy ratio: 0.808862
[rank 1, worker 28] busy ratio: 0.788378
[rank 1, worker 29] busy ratio: 0.745439
[rank 3, worker 47] busy ratio: 0.782798
[rank 3, worker 48] busy ratio: 0.842151
[rank 0, worker 32] busy ratio: 0.788010
[rank 0, worker 33] busy ratio: 0.811468
[rank 0, worker 34] busy ratio: 0.821336
[rank 1, worker 30] busy ratio: 0.773043
[rank 1, worker 31] busy ratio: 0.756522
[rank 2, worker 0] busy ratio: 0.974826
[rank 2, worker 1] busy ratio: 0.894005
[rank 2, worker 2] busy ratio: 0.897658
[rank 2, worker 3] busy ratio: 0.895833
[rank 2, worker 4] busy ratio: 0.860122
[rank 2, worker 5] busy ratio: 0.863951
[rank 2, worker 6] busy ratio: 0.844483
[rank 2, worker 7] busy ratio: 0.899393
[rank 2, worker 8] busy ratio: 0.899393
[rank 3, worker 49] busy ratio: 0.833333
[rank 3, worker 50] busy ratio: 0.829861
[rank 3, worker 51] busy ratio: 0.836947
[rank 0, worker 35] busy ratio: 0.780870
[rank 0, worker 36] busy ratio: 0.811632
[rank 0, worker 37] busy ratio: 0.839270
[rank 0, worker 38] busy ratio: 0.789748
[rank 0, worker 39] busy ratio: 0.821181
[rank 0, worker 40] busy ratio: 0.774306
[rank 1, worker 32] busy ratio: 0.741964
[rank 1, worker 33] busy ratio: 0.807626
[rank 3, worker 52] busy ratio: 0.847222
[rank 3, worker 53] busy ratio: 0.811468
[rank 0, worker 41] busy ratio: 0.823938
[rank 0, worker 42] busy ratio: 0.791486
[rank 0, worker 43] busy ratio: 0.806255
[rank 0, worker 44] busy ratio: 0.812337
[rank 0, worker 45] busy ratio: 0.779322
[rank 1, worker 34] busy ratio: 0.770165
[rank 1, worker 35] busy ratio: 0.775174
[rank 3, worker 54] busy ratio: 0.800520
[rank 3, worker 55] busy ratio: 0.800174
[rank 0, worker 46] busy ratio: 0.783666
[rank 0, worker 47] busy ratio: 0.794961
[rank 0, worker 48] busy ratio: 0.781060
[rank 0, worker 49] busy ratio: 0.826539
[rank 1, worker 36] busy ratio: 0.800174
[rank 1, worker 37] busy ratio: 0.782609
[rank 1, worker 38] busy ratio: 0.794271
[rank 1, worker 39] busy ratio: 0.778454
[rank 0, worker 50] busy ratio: 0.748482
[rank 0, worker 51] busy ratio: 0.815972
[rank 0, worker 52] busy ratio: 0.807292
[rank 1, worker 40] busy ratio: 0.779705
[rank 1, worker 41] busy ratio: 0.782798
[rank 2, worker 9] busy ratio: 0.907986
[rank 2, worker 10] busy ratio: 0.843750
[rank 2, worker 11] busy ratio: 0.834783
[rank 2, worker 12] busy ratio: 0.842882
[rank 2, worker 13] busy ratio: 0.844618
[rank 2, worker 14] busy ratio: 0.907199
[rank 2, worker 15] busy ratio: 0.902778
[rank 2, worker 16] busy ratio: 0.899218
[rank 2, worker 17] busy ratio: 0.900174
[rank 2, worker 18] busy ratio: 0.838542
[rank 2, worker 19] busy ratio: 0.845217
[rank 2, worker 20] busy ratio: 0.842014
[rank 2, worker 21] busy ratio: 0.882914
[rank 2, worker 22] busy ratio: 0.890720
[rank 0, worker 53] busy ratio: 0.765421
[rank 0, worker 54] busy ratio: 0.781060
[rank 0, worker 55] busy ratio: 0.779322
[rank 1, worker 42] busy ratio: 0.762565
[rank 1, worker 43] busy ratio: 0.795494
[rank 2, worker 23] busy ratio: 0.882047
[rank 2, worker 24] busy ratio: 0.842151
[rank 1, worker 44] busy ratio: 0.770634
[rank 1, worker 45] busy ratio: 0.790799
[rank 2, worker 25] busy ratio: 0.835212
[rank 2, worker 26] busy ratio: 0.840278
[rank 1, worker 46] busy ratio: 0.792715
[rank 1, worker 47] busy ratio: 0.753686
[rank 2, worker 27] busy ratio: 0.832465
[rank 2, worker 28] busy ratio: 0.758471
[rank 1, worker 48] busy ratio: 0.808492
[rank 1, worker 49] busy ratio: 0.772569
[rank 2, worker 29] busy ratio: 0.728063
[rank 2, worker 30] busy ratio: 0.767159
[rank 1, worker 50] busy ratio: 0.807993
[rank 1, worker 51] busy ratio: 0.782118
[rank 2, worker 31] busy ratio: 0.769765
[rank 2, worker 32] busy ratio: 0.765625
[rank 1, worker 52] busy ratio: 0.797227
[rank 1, worker 53] busy ratio: 0.753258
[rank 2, worker 33] busy ratio: 0.774306
[rank 2, worker 34] busy ratio: 0.800347
[rank 1, worker 54] busy ratio: 0.755208
[rank 1, worker 55] busy ratio: 0.754996
[rank 2, worker 35] busy ratio: 0.747396
[rank 2, worker 36] busy ratio: 0.764961
[rank 2, worker 37] busy ratio: 0.802951
[rank 2, worker 38] busy ratio: 0.765421
[rank 2, worker 39] busy ratio: 0.798611
[rank 2, worker 40] busy ratio: 0.743701
[rank 2, worker 41] busy ratio: 0.793403
[rank 2, worker 42] busy ratio: 0.758890
[rank 2, worker 43] busy ratio: 0.769965
[rank 2, worker 44] busy ratio: 0.797567
[rank 2, worker 45] busy ratio: 0.753472
[rank 2, worker 46] busy ratio: 0.755421
[rank 2, worker 47] busy ratio: 0.758681
[rank 2, worker 48] busy ratio: 0.742188
[rank 2, worker 49] busy ratio: 0.799130
[rank 2, worker 50] busy ratio: 0.712056
[rank 2, worker 51] busy ratio: 0.800174
[rank 2, worker 52] busy ratio: 0.769965
[rank 2, worker 53] busy ratio: 0.735473
[rank 2, worker 54] busy ratio: 0.754127
[rank 2, worker 55] busy ratio: 0.741739
Loop time of 11.5381 on 224 procs for 100 steps with 6912000 atoms

Performance: 3744.110 tau/day, 8.667 timesteps/s
4565.9% CPU use with 4 MPI tasks x 56 OpenMP threads

MPI task timing breakdown:
Section |  min time  |  avg time  |  max time  |%varavg| %total
---------------------------------------------------------------
Pair    | 7.3989     | 7.6468     | 7.8359     |   6.5 | 66.27
Neigh   | 0.75728    | 0.7883     | 0.81362    |   2.4 |  6.83
Comm    | 1.323      | 1.5047     | 1.6651     |  10.8 | 13.04
Output  | 0.00067078 | 0.032924   | 0.049228   |  10.7 |  0.29
Modify  | 0.47456    | 0.53623    | 0.61712    |   8.5 |  4.65
Other   |            | 1.029      |            |       |  8.92

Nlocal:    1.728e+06 ave 1.72823e+06 max 1.72772e+06 min
Histogram: 1 0 0 0 0 1 1 0 0 1
Nghost:    260645 ave 260881 max 260518 min
Histogram: 1 1 1 0 0 0 0 0 0 1
Neighs:    0 ave 0 max 0 min
Histogram: 4 0 0 0 0 0 0 0 0 0
FullNghs:  1.2979e+08 ave 1.29814e+08 max 1.29771e+08 min
Histogram: 1 0 1 0 0 1 0 0 0 1

Total # of neighbors = 519161500
Ave neighs/atom = 75.1102
Neighbor list builds = 5
Dangerous builds not checked
Total wall time: 0:00:16
