LAMMPS (7 Aug 2019)
KOKKOS mode is enabled (../kokkos.cpp:85)
  will use up to 0 GPU(s) per node
  using 56 OpenMP thread(s) per MPI task
Lattice spacing in x,y,z = 1.6796 1.6796 1.6796
Created orthogonal box = (0 0 0) to (268.735 268.735 268.735)
  1 by 2 by 2 MPI processor grid
Created 16384000 atoms
  create_atoms CPU = 6.77382 secs
Neighbor list info ...
  update every 20 steps, delay 0 steps, check no
  max neighbors/atom: 2000, page size: 100000
  master list distance cutoff = 2.8
  ghost atom cutoff = 2.8
  binsize = 1.4, bins = 192 192 192
  1 neighbor lists, perpetual/occasional/extra = 1 0 0
  (1) pair lj/cut/kk, perpetual
      attributes: full, newton off, kokkos_device
      pair build: full/bin/kk/device
      stencil: full/bin/3d
      bin: kk/device
Setting up Verlet run ...
  Unit style    : lj
  Current step  : 0
  Time step     : 0.005
Per MPI rank memory allocation (min/avg/max) = 8306 | 8306 | 8306 Mbytes
Step Temp E_pair E_mol TotEng Press 
       0         1.44   -6.7733681            0   -4.6133682   -5.0196693 
     100   0.75918554   -5.7610896            0   -4.6223114   0.19195085 
[rank 3, worker 0] busy ratio: 0.996340
[rank 3, worker 1] busy ratio: 0.744143
[rank 3, worker 2] busy ratio: 0.733455
[rank 3, worker 3] busy ratio: 0.735187
[rank 3, worker 4] busy ratio: 0.710940
[rank 3, worker 5] busy ratio: 0.681668
[rank 3, worker 6] busy ratio: 0.684230
[rank 3, worker 7] busy ratio: 0.725777
[rank 0, worker 0] busy ratio: 0.991950
[rank 0, worker 1] busy ratio: 0.890596
[rank 0, worker 2] busy ratio: 0.888848
[rank 0, worker 3] busy ratio: 0.897220
[rank 0, worker 4] busy ratio: 0.678795
[rank 3, worker 8] busy ratio: 0.725777
[rank 3, worker 9] busy ratio: 0.732260
[rank 3, worker 10] busy ratio: 0.677030
[rank 3, worker 11] busy ratio: 0.680688
[rank 3, worker 12] busy ratio: 0.685923
[rank 3, worker 13] busy ratio: 0.672029
[rank 3, worker 14] busy ratio: 0.726143
[rank 3, worker 15] busy ratio: 0.722121
[rank 3, worker 16] busy ratio: 0.726408
[rank 1, worker 0] busy ratio: 0.991594
[rank 1, worker 1] busy ratio: 0.755955
[rank 1, worker 2] busy ratio: 0.766277
[rank 1, worker 3] busy ratio: 0.764813
[rank 1, worker 4] busy ratio: 0.710102
[rank 1, worker 5] busy ratio: 0.710209
[rank 1, worker 6] busy ratio: 0.707647
[rank 1, worker 7] busy ratio: 0.765179
[rank 1, worker 8] busy ratio: 0.758230
[rank 2, worker 0] busy ratio: 0.989389
[rank 2, worker 1] busy ratio: 0.750091
[rank 2, worker 2] busy ratio: 0.756490
[rank 2, worker 3] busy ratio: 0.752284
[rank 2, worker 4] busy ratio: 0.722852
[rank 2, worker 5] busy ratio: 0.711412
[rank 2, worker 6] busy ratio: 0.704097
[rank 2, worker 7] busy ratio: 0.744152
[rank 2, worker 8] busy ratio: 0.753199
[rank 0, worker 5] busy ratio: 0.588408
[rank 0, worker 6] busy ratio: 0.587179
[rank 0, worker 7] busy ratio: 0.894660
[rank 0, worker 8] busy ratio: 0.898355
[rank 0, worker 9] busy ratio: 0.896892
[rank 0, worker 10] busy ratio: 0.557059
[rank 0, worker 11] busy ratio: 0.549579
[rank 0, worker 12] busy ratio: 0.562546
[rank 0, worker 13] busy ratio: 0.545355
[rank 0, worker 14] busy ratio: 0.903438
[rank 3, worker 17] busy ratio: 0.734918
[rank 3, worker 18] busy ratio: 0.672395
[rank 3, worker 19] busy ratio: 0.678493
[rank 1, worker 9] busy ratio: 0.765179
[rank 1, worker 10] busy ratio: 0.702634
[rank 1, worker 11] busy ratio: 0.704205
[rank 1, worker 12] busy ratio: 0.702742
[rank 1, worker 13] busy ratio: 0.701280
[rank 1, worker 14] busy ratio: 0.764899
[rank 1, worker 15] busy ratio: 0.763437
[rank 1, worker 16] busy ratio: 0.770666
[rank 1, worker 17] busy ratio: 0.756401
[rank 1, worker 18] busy ratio: 0.706291
[rank 1, worker 19] busy ratio: 0.703988
[rank 1, worker 20] busy ratio: 0.703988
[rank 1, worker 21] busy ratio: 0.768837
[rank 1, worker 22] busy ratio: 0.766642
[rank 1, worker 23] busy ratio: 0.765911
[rank 2, worker 9] busy ratio: 0.762706
[rank 2, worker 10] busy ratio: 0.696272
[rank 2, worker 11] busy ratio: 0.708013
[rank 2, worker 12] busy ratio: 0.708592
[rank 2, worker 13] busy ratio: 0.704205
[rank 2, worker 14] busy ratio: 0.765071
[rank 2, worker 15] busy ratio: 0.755117
[rank 2, worker 16] busy ratio: 0.760599
[rank 2, worker 17] busy ratio: 0.758406
[rank 2, worker 18] busy ratio: 0.710055
[rank 2, worker 19] busy ratio: 0.700658
[rank 2, worker 20] busy ratio: 0.709949
[rank 2, worker 21] busy ratio: 0.758684
[rank 2, worker 22] busy ratio: 0.756213
[rank 2, worker 23] busy ratio: 0.759137
[rank 0, worker 15] busy ratio: 0.897586
[rank 0, worker 16] busy ratio: 0.901645
[rank 3, worker 20] busy ratio: 0.675201
[rank 3, worker 21] busy ratio: 0.736650
[rank 3, worker 22] busy ratio: 0.731261
[rank 1, worker 24] busy ratio: 0.696193
[rank 1, worker 25] busy ratio: 0.700695
[rank 2, worker 24] busy ratio: 0.708958
[rank 2, worker 25] busy ratio: 0.709324
[rank 2, worker 26] busy ratio: 0.704462
[rank 0, worker 17] busy ratio: 0.899452
[rank 0, worker 18] busy ratio: 0.555596
[rank 3, worker 23] busy ratio: 0.727605
[rank 3, worker 24] busy ratio: 0.674716
[rank 1, worker 26] busy ratio: 0.703622
[rank 1, worker 27] busy ratio: 0.702999
[rank 2, worker 27] busy ratio: 0.708333
[rank 2, worker 28] busy ratio: 0.573260
[rank 0, worker 19] busy ratio: 0.532919
[rank 0, worker 20] busy ratio: 0.527625
[rank 3, worker 25] busy ratio: 0.674835
[rank 3, worker 26] busy ratio: 0.674835
[rank 1, worker 28] busy ratio: 0.562844
[rank 1, worker 29] busy ratio: 0.540630
[rank 2, worker 29] busy ratio: 0.576445
[rank 2, worker 30] busy ratio: 0.583699
[rank 0, worker 21] busy ratio: 0.899086
[rank 0, worker 22] busy ratio: 0.866813
[rank 3, worker 27] busy ratio: 0.669104
[rank 3, worker 28] busy ratio: 0.676912
[rank 3, worker 29] busy ratio: 0.668862
[rank 1, worker 30] busy ratio: 0.575192
[rank 1, worker 31] busy ratio: 0.542460
[rank 2, worker 31] busy ratio: 0.567301
[rank 0, worker 23] busy ratio: 0.904570
[rank 0, worker 24] busy ratio: 0.545521
[rank 0, worker 25] busy ratio: 0.536380
[rank 3, worker 30] busy ratio: 0.676912
[rank 3, worker 31] busy ratio: 0.666057
[rank 1, worker 32] busy ratio: 0.550677
[rank 1, worker 33] busy ratio: 0.555068
[rank 2, worker 32] busy ratio: 0.582968
[rank 2, worker 33] busy ratio: 0.613894
[rank 0, worker 26] busy ratio: 0.525238
[rank 0, worker 27] busy ratio: 0.523392
[rank 3, worker 32] busy ratio: 0.667764
[rank 3, worker 33] busy ratio: 0.671664
[rank 1, worker 34] busy ratio: 0.548847
[rank 1, worker 35] busy ratio: 0.545721
[rank 2, worker 34] busy ratio: 0.563849
[rank 2, worker 35] busy ratio: 0.565265
[rank 2, worker 36] busy ratio: 0.624360
[rank 2, worker 37] busy ratio: 0.549543
[rank 2, worker 38] busy ratio: 0.589912
[rank 0, worker 28] busy ratio: 0.572108
[rank 0, worker 29] busy ratio: 0.514442
[rank 3, worker 34] busy ratio: 0.662765
[rank 3, worker 35] busy ratio: 0.670812
[rank 3, worker 36] busy ratio: 0.668496
[rank 1, worker 36] busy ratio: 0.554296
[rank 1, worker 37] busy ratio: 0.570487
[rank 1, worker 38] busy ratio: 0.523775
[rank 1, worker 39] busy ratio: 0.549378
[rank 1, worker 40] busy ratio: 0.566411
[rank 2, worker 39] busy ratio: 0.548446
[rank 2, worker 40] busy ratio: 0.574561
[rank 0, worker 30] busy ratio: 0.530553
[rank 0, worker 31] busy ratio: 0.511704
[rank 0, worker 32] busy ratio: 0.547950
[rank 0, worker 33] busy ratio: 0.574515
[rank 0, worker 34] busy ratio: 0.547785
[rank 0, worker 35] busy ratio: 0.509324
[rank 3, worker 37] busy ratio: 0.673372
[rank 3, worker 38] busy ratio: 0.672275
[rank 1, worker 41] busy ratio: 0.555230
[rank 1, worker 42] busy ratio: 0.532382
[rank 2, worker 41] busy ratio: 0.608918
[rank 0, worker 36] busy ratio: 0.551207
[rank 0, worker 37] busy ratio: 0.496706
[rank 0, worker 38] busy ratio: 0.543924
[rank 3, worker 39] busy ratio: 0.661302
[rank 3, worker 40] busy ratio: 0.668130
[rank 1, worker 43] busy ratio: 0.559254
[rank 1, worker 44] busy ratio: 0.534943
[rank 2, worker 42] busy ratio: 0.560029
[rank 2, worker 43] busy ratio: 0.601608
[rank 0, worker 39] busy ratio: 0.529455
[rank 0, worker 40] busy ratio: 0.531307
[rank 3, worker 41] busy ratio: 0.659349
[rank 3, worker 42] busy ratio: 0.665568
[rank 3, worker 43] busy ratio: 0.670567
[rank 1, worker 45] busy ratio: 0.558157
[rank 1, worker 46] busy ratio: 0.574982
[rank 2, worker 44] busy ratio: 0.553238
[rank 2, worker 45] busy ratio: 0.549141
[rank 0, worker 41] busy ratio: 0.532211
[rank 0, worker 42] busy ratio: 0.497074
[rank 3, worker 44] busy ratio: 0.661910
[rank 3, worker 45] busy ratio: 0.660688
[rank 1, worker 47] busy ratio: 0.567093
[rank 1, worker 48] busy ratio: 0.592173
[rank 2, worker 46] busy ratio: 0.559049
[rank 2, worker 47] busy ratio: 0.614766
[rank 0, worker 43] busy ratio: 0.503658
[rank 0, worker 44] busy ratio: 0.504755
[rank 3, worker 46] busy ratio: 0.659473
[rank 3, worker 47] busy ratio: 0.663008
[rank 1, worker 49] busy ratio: 0.536576
[rank 1, worker 50] busy ratio: 0.596414
[rank 2, worker 48] busy ratio: 0.539868
[rank 2, worker 49] busy ratio: 0.624360
[rank 0, worker 45] busy ratio: 0.500000
[rank 0, worker 46] busy ratio: 0.529627
[rank 3, worker 48] busy ratio: 0.668496
[rank 3, worker 49] busy ratio: 0.658742
[rank 3, worker 50] busy ratio: 0.670812
[rank 1, worker 51] busy ratio: 0.547184
[rank 1, worker 52] busy ratio: 0.556328
[rank 2, worker 50] busy ratio: 0.539108
[rank 2, worker 51] busy ratio: 0.571115
[rank 2, worker 52] busy ratio: 0.557221
[rank 2, worker 53] busy ratio: 0.569653
[rank 2, worker 54] busy ratio: 0.592322
[rank 0, worker 47] busy ratio: 0.553807
[rank 0, worker 48] busy ratio: 0.509144
[rank 3, worker 51] busy ratio: 0.658617
[rank 3, worker 52] busy ratio: 0.665935
[rank 1, worker 53] busy ratio: 0.573675
[rank 1, worker 54] busy ratio: 0.544823
[rank 1, worker 55] busy ratio: 0.523984
[rank 2, worker 55] busy ratio: 0.552872
[rank 0, worker 49] busy ratio: 0.554865
[rank 0, worker 50] busy ratio: 0.499452
[rank 0, worker 51] busy ratio: 0.512802
[rank 0, worker 52] busy ratio: 0.504570
[rank 3, worker 53] busy ratio: 0.666057
[rank 3, worker 54] busy ratio: 0.662034
[rank 0, worker 53] busy ratio: 0.511704
[rank 0, worker 54] busy ratio: 0.511892
[rank 3, worker 55] busy ratio: 0.655084
[rank 0, worker 55] busy ratio: 0.631136
Loop time of 27.3621 on 224 procs for 100 steps with 16384000 atoms

Performance: 1578.828 tau/day, 3.655 timesteps/s
3626.7% CPU use with 4 MPI tasks x 56 OpenMP threads

MPI task timing breakdown:
Section |  min time  |  avg time  |  max time  |%varavg| %total
---------------------------------------------------------------
Pair    | 16.762     | 18.704     | 21.908     |  44.5 | 68.36
Neigh   | 1.845      | 1.9508     | 2.1518     |   8.7 |  7.13
Comm    | 1.6527     | 4.6606     | 5.9366     |  80.8 | 17.03
Output  | 0.0011164  | 0.025613   | 0.076981   |  18.8 |  0.09
Modify  | 0.56688    | 0.60796    | 0.6384     |   4.0 |  2.22
Other   |            | 1.413      |            |       |  5.16

Nlocal:    4.096e+06 ave 4.09657e+06 max 4.09544e+06 min
Histogram: 1 0 0 1 0 0 1 0 0 1
Nghost:    458178 ave 458566 max 457741 min
Histogram: 1 0 0 0 1 0 0 1 0 1
Neighs:    0 ave 0 max 0 min
Histogram: 4 0 0 0 0 0 0 0 0 0
FullNghs:  3.07645e+08 ave 3.07688e+08 max 3.07588e+08 min
Histogram: 1 0 0 0 1 0 0 0 1 1

Total # of neighbors = 1230581798
Ave neighs/atom = 75.1088
Neighbor list builds = 5
Dangerous builds not checked
Total wall time: 0:00:37
